LAMMPS (3 Mar 2020)
OMP_NUM_THREADS environment is not set. Defaulting to 1 thread. (src/comm.cpp:94)
  using 1 OpenMP thread(s) per MPI task
Reading restart file ...
  restart file = 3 Mar 2020, LAMMPS = 3 Mar 2020
  restoring atom style molecular from restart
  orthogonal box = (12.4613 12.4613 12.4613) to (107.539 107.539 107.539)
  1 by 2 by 2 MPI processor grid
  restoring pair style lj/cut from restart
  restoring bond style harmonic from restart
  restoring angle style harmonic from restart
  restoring dihedral style opls from restart
  24000 atoms
  20000 bonds
  16000 angles
  12000 dihedrals
Finding 1-2 1-3 1-4 neighbors ...
  special bond factors lj:   0          0          0         
  special bond factors coul: 0          0          0         
  2 = max # of 1-2 neighbors
  2 = max # of 1-3 neighbors
  3 = max # of 1-4 neighbors
  5 = max # of special neighbors
  special bonds CPU = 0.0102577 secs
  read_restart CPU = 0.605486 secs
Neighbor list info ...
  update every 1 steps, delay 10 steps, check yes
  max neighbors/atom: 2000, page size: 100000
  master list distance cutoff = 16
  ghost atom cutoff = 16
  binsize = 8, bins = 12 12 12
  1 neighbor lists, perpetual/occasional/extra = 1 0 0
  (1) pair lj/cut, perpetual
      attributes: half, newton on
      pair build: half/bin/newton
      stencil: half/bin/3d/newton
      bin: standard
Setting up Verlet run ...
  Unit style    : metal
  Current step  : 300000
  Time step     : 0.001
Per MPI rank memory allocation (min/avg/max) = 21.4 | 21.49 | 21.78 Mbytes
Step Temp Press TotEng Density 
  300000    294.67582    -331.3683    401.81638   0.66597004 
  300100    295.78722   -337.44819    409.00412   0.66568985 
  300200    298.53409    94.276412    417.28286   0.66484618 
  300300    297.59809    304.50972     418.1324   0.66358543 
  300400    297.10836   -222.14395    417.74263   0.66238199 
  300500     299.0269   -323.87694    419.31436   0.66167703 
  300600     299.0975    69.749718    425.16855   0.66157234 
  300700    300.51846    102.62683    426.40163   0.66175976 
  300800    299.04813    48.767367    418.61883   0.66164644 
  300900    295.07175   -263.89649    411.66991   0.66141267 
  301000    296.53177   -184.09844    417.32819   0.66161646 
  301100    298.75911    207.96133    429.31067   0.66237761 
  301200    299.09315    189.90733    426.99885   0.66289744 
  301300     298.2382   -82.348972    419.28133   0.66319172 
  301400    297.70492    186.01301    413.56601   0.66337458 
  301500    296.36881    36.349415    415.43531   0.66294029 
  301600    300.50755   -64.607871    428.95125   0.66217689 
  301700     301.0336    50.718175    429.99939   0.66134385 
  301800    299.45139   -266.78072    423.92648   0.66052714 
  301900    295.84877   -271.44764    416.13229   0.66089693 
  302000    297.05365    -117.8824    415.43307   0.66172088 
  302100    298.61914    -65.68984    418.75683   0.66319263 
  302200    299.11269    -143.6688    419.48415   0.66474601 
  302300    296.07781    52.421591      414.949   0.66558211 
  302400    297.50278     -67.4924    408.80247   0.66561677 
  302500    295.36209    -69.38241    404.02174   0.66522988 
  302600    297.37548    100.83062    411.38198   0.66472687 
  302700    300.17081    159.20526    419.61643   0.66416733 
  302800    298.39714   -207.33821     420.6586   0.66342911 
  302900    296.99028    33.072431     419.0888   0.66290519 
  303000    298.56076   -135.14031    419.61944   0.66237513 
  303100    297.43552   -72.428273    420.61085   0.66280795 
  303200    300.73204    369.39089    427.01818   0.66352139 
  303300    299.53387    300.76098    428.99158   0.66381269 
  303400     297.5174   -105.56666    420.05388   0.66338854 
  303500    297.18274   -225.13681    413.93781      0.66267 
  303600    296.10435     123.0407    413.47791   0.66269979 
  303700    299.91575    331.41908     421.8525   0.66332174 
  303800     301.2909   -36.176881    432.88884   0.66405158 
  303900    297.58307   -42.173506    427.62431   0.66416749 
  304000    298.01109    152.89458    420.07846   0.66346673 
  304100    297.28372    139.78235    415.80699   0.66272742 
  304200    297.42477    63.484478    416.92486   0.66205439 
  304300    299.33086   -83.623696    425.66901   0.66211192 
  304400    300.65854   -66.494435    431.68154   0.66304829 
  304500    298.50246   -123.37187    420.69336   0.66408742 
  304600    297.56859    257.25769    414.65648   0.66444822 
  304700    297.69069    -48.12505    416.13401   0.66359926 
  304800    297.86894    18.179161    416.93769   0.66305881 
  304900    297.70208   -67.861845    420.04427   0.66247742 
  305000    300.78806    115.27744    422.84998   0.66263735 
  305100    297.91691    44.968392    416.90636    0.6635042 
  305200    295.87791   -271.91412    409.58884   0.66407761 
  305300    297.36777   -139.90125    407.86064   0.66465179 
  305400    296.81378    162.31023    410.43062   0.66548874 
  305500    299.81311    307.42822    421.94118   0.66574171 
  305600    299.27378    39.487451    422.18327    0.6648312 
  305700    295.74327   -97.458688    413.46509   0.66351211 
  305800    295.81212   -247.63067    411.72145   0.66192724 
  305900    296.63353   -184.84362    415.36406   0.66111186 
  306000    297.53455   -46.608312    419.66605   0.66180603 
  306100    300.24866    -148.4987    436.27674   0.66319857 
  306200    300.21805    66.704414    432.58529    0.6642701 
  306300    299.75542    319.60662    420.99398   0.66395019 
  306400    298.22832   -148.93398    415.56051   0.66289633 
  306500    297.87323   -377.83682    414.51858   0.66159628 
  306600    299.67821   -39.766016     419.7221     0.660987 
  306700    299.36305   -2.6675468    427.50394   0.66146098 
  306800    300.52641   -186.57198    430.92126   0.66212511 
  306900    298.31167    226.38612     418.1029   0.66301728 
  307000    298.06885    28.341572    414.00672   0.66299158 
  307100    297.64525   -151.49733     419.7915   0.66242234 
  307200    299.63338   -32.381749    425.31248   0.66156257 
  307300    298.81993   -110.59618    422.24697   0.66091203 
  307400    297.38908   -170.42844    416.36184   0.66069622 
  307500    293.87096   -134.56235    404.39416   0.66123137 
  307600    296.22022   -53.334083    411.74518   0.66193996 
  307700    298.36108     179.3489    419.15384   0.66295516 
  307800    297.68275    199.10588    418.00432   0.66399063 
  307900    297.19389   -42.958186    414.42482   0.66474893 
  308000    298.12292   -91.843986    408.11504   0.66475001 
  308100    294.13571   -81.673135    400.33019   0.66461642 
  308200    296.03786    59.579748    411.44808   0.66446277 
  308300     298.4012    102.03461    417.54097   0.66435844 
  308400    297.35113    134.04133    417.47808    0.6641736 
  308500    297.47559   -193.57776    415.50551   0.66396274 
  308600    296.22453    151.99367    408.24119   0.66375603 
  308700    295.85297    337.85842    408.07877   0.66327565 
  308800    297.97041   -48.734186    421.33547   0.66302806 
  308900    299.02513   -293.37565    423.64202   0.66292435 
  309000    297.48064    7.9869002    416.65813   0.66292431 
  309100    296.20573    107.23958    411.91868   0.66306177 
  309200    295.87269   -43.728565    413.80217   0.66300152 
  309300    299.44692    110.26337    419.27205   0.66288162 
  309400    302.54014    24.299026    433.30556   0.66240029 
  309500    300.78251    47.146753    430.62789    0.6613582 
  309600    297.96425    11.361996    421.36873   0.66040497 
  309700    297.95221   -140.23664    419.04485   0.66017237 
  309800    298.61046   -223.74361    420.88715   0.66075832 
  309900    299.69216    164.65523    429.99797   0.66206254 
  310000    301.46173    138.88722    437.66707   0.66315964 
  310100    297.54026    53.584108    426.35759   0.66338831 
  310200    300.21205    82.765125    420.67324   0.66267799 
  310300    296.99152    211.26939    413.12333   0.66202444 
  310400    297.92266    1.2407201    411.45918   0.66140811 
  310500    296.84817    27.715498    418.71324    0.6614035 
  310600    299.90802   -156.43726    428.91727   0.66105128 
  310700     296.5926   -164.87403    426.30693   0.66067687 
  310800    295.36792    93.950239    418.33247   0.66065145 
  310900    297.19422    123.03677    416.08494   0.66075415 
  311000    297.82125   -213.09592     421.3517    0.6608434 
  311100    298.11891    -155.8542    424.68961   0.66110495 
  311200    298.27891    45.485986    423.46181   0.66150518 
  311300    300.40973     3.707977    421.51755   0.66194035 
  311400    299.13659   -203.02446     415.8247   0.66253966 
  311500    295.21264   -61.449112    408.17088   0.66313223 
  311600     296.6172     171.0927    404.57221    0.6636704 
  311700     297.6161    126.17014    412.30989   0.66410484 
  311800     298.3325   -22.083124    422.21702   0.66428108 
  311900    297.86834   -225.46227    423.74798   0.66369637 
  312000    297.95151   -249.31864    420.81245   0.66258629 
  312100    295.13643    13.698813     409.9952   0.66171849 
  312200    294.98599   -40.119697    408.23059   0.66139718 
  312300    295.97944   -24.862423    419.49042   0.66285232 
  312400    298.87145    87.446132    426.46993   0.66493971 
  312500    301.13362     71.38329    422.98094   0.66628278 
  312600    299.33158    261.31423    412.21157   0.66682648 
  312700    296.96314    245.87909    407.64975   0.66675528 
  312800     299.1824   -215.83307    412.13953   0.66563506 
  312900     298.8544   -137.17142    419.75333   0.66433606 
  313000    299.47527    95.844647    425.99391   0.66313966 
  313100    300.70682   -59.577244     435.9335   0.66211672 
  313200     299.5396   -234.41498    440.82162   0.66134971 
  313300    299.20331    -80.68732    431.04331   0.66102165 
  313400    298.71992    62.760452    423.80139   0.66176309 
  313500     300.2068    258.99337    422.50847   0.66297466 
  313600    299.09171   -246.62457    416.95552    0.6641742 
  313700    295.49455   -98.506575    407.53237   0.66518135 
  313800    295.56141    78.250882     406.8632   0.66524466 
  313900    299.77201    248.88605    422.17788   0.66485029 
  314000    299.75547    124.72943    425.25754   0.66409517 
  314100    296.35874   -250.57675    418.94859   0.66291482 
  314200     296.5752     18.85542    414.47373   0.66214523 
  314300     297.6739   0.89515939    418.62737   0.66175896 
  314400     299.8083   -95.617544    430.56451    0.6622122 
  314500    301.43641    52.225952    429.12452   0.66288712 
  314600    298.13861     188.7233    421.79772   0.66353565 
  314700    297.12732    231.02756    419.18141   0.66372807 
  314800    298.21053   -5.9821195    416.60927   0.66366975 
  314900    299.32334   -79.839476    411.83341   0.66398551 
  315000    297.88272   -112.90811    403.00525   0.66488106 
  315100    297.06398    96.735656    405.77091   0.66594032 
  315200    298.68825    194.55473    415.85749   0.66717531 
  315300    298.42499    124.52229     416.7342   0.66754171 
  315400    299.15767   -181.49375    413.68419   0.66663804 
  315500    296.40352   -21.202097    411.03214   0.66514864 
  315600    296.52673     177.7599    412.39773   0.66355116 
  315700     297.8857    9.2983344    422.26744   0.66275013 
  315800    298.48476    41.924018    427.92103   0.66309156 
  315900    298.66555    152.80054    424.94451   0.66386053 
  316000    299.59681    142.43694    420.46454   0.66430419 
  316100     297.5056    342.15249    413.04932   0.66466803 
  316200    297.51385   -91.755176     412.5567   0.66444433 
  316300    300.15618    -7.386927    421.77892   0.66344745 
  316400    298.76566    124.63454    424.61258   0.66255096 
  316500    297.07286    94.612622    421.38896   0.66183007 
  316600    301.12391   -100.74822    419.86045   0.66155618 
  316700    296.43346   -167.35573    414.18844   0.66251828 
  316800    298.83309   -294.06294    411.71068   0.66334291 
  316900    296.76036   -14.145909    409.73243   0.66417878 
  317000    296.16735     244.6601    403.00224   0.66524558 
  317100    295.66075    162.91913    401.02635   0.66627995 
  317200    300.23603    19.704924    409.67417   0.66706533 
  317300     299.2987    76.080212    415.93766   0.66735688 
  317400    296.69865     308.1857     409.8899   0.66683006 
  317500    294.29113    38.279113    399.38514   0.66565626 
  317600    295.01378   -121.88198    404.54199   0.66403607 
  317700    298.66219    43.138383    414.10362   0.66256962 
  317800    299.52702    333.03557    420.56653   0.66183999 
  317900    299.57476   -45.471658    421.88453   0.66166506 
  318000    297.03152   -291.92395     416.8005   0.66238687 
  318100    298.37806   -17.311324    407.48468   0.66348914 
  318200    296.91027     100.0626    403.10508   0.66489368 
  318300    297.89465    28.460609    414.16062   0.66569839 
  318400    299.97715   -7.5551074    420.99569   0.66614645 
  318500    299.78667   -207.11708    418.61182   0.66575264 
  318600    296.81817    139.57024    409.78805   0.66509553 
  318700    295.15916    251.72641    405.30151   0.66477652 
  318800     297.8406   -49.632244    411.12934   0.66476959 
  318900    297.04763   -127.40851    414.85517   0.66508097 
  319000    297.70349   -100.62428    416.49751   0.66498675 
  319100    298.84343    127.28083    416.77447   0.66483989 
  319200    296.12625   -159.68193    414.43093   0.66456981 
  319300    297.17854   -155.31677    416.65284   0.66422079 
  319400    300.37471   -18.531393    425.40862   0.66379931 
  319500    299.88163    119.57632    423.43862   0.66347365 
  319600    297.19417   -10.979021    412.94396   0.66367785 
  319700    297.78683   -339.13651    411.63109   0.66366371 
  319800    297.26018    39.093755    412.44792   0.66393469 
  319900    298.46203    320.42792    421.41857   0.66328449 
  320000    300.32754    145.56601    425.67063   0.66197861 
  320100    298.26138   -132.81982    421.12453   0.66135084 
  320200     297.8229   -90.585478    417.10482   0.66143083 
  320300    296.55736    33.588511    416.44493   0.66244085 
  320400    297.57767    122.28248     425.1462    0.6632847 
  320500    301.46973    148.46824    430.16885   0.66371242 
  320600    297.33257   -39.340898    420.19985   0.66384138 
  320700    296.51171    63.983925    413.61768   0.66373311 
  320800    297.33543    93.056785    413.68237   0.66381602 
  320900     296.8401   -173.09302     417.2936   0.66358942 
  321000    298.84381    -40.32027    427.09161   0.66328798 
  321100    298.86957    64.430015    430.48987   0.66286761 
  321200    297.76324    208.88895    417.01884   0.66201774 
  321300    296.51808     195.0138    411.53025   0.66143873 
  321400    298.60493   -47.254176    417.70051   0.66161542 
  321500    299.36402    109.50498    425.49172   0.66295962 
