LAMMPS (3 Mar 2020)
OMP_NUM_THREADS environment is not set. Defaulting to 1 thread. (src/comm.cpp:94)
  using 1 OpenMP thread(s) per MPI task
OMP_NUM_THREADS environment is not set. Defaulting to 1 thread. (src/comm.cpp:94)
  using 1 OpenMP thread(s) per MPI task
Lattice spacing in x,y,z = 12 12 12
Created orthogonal box = (0 0 0) to (120 120 120)
  1 by 2 by 2 MPI processor grid
Read molecule hexane:
  6 atoms with max type 2
  5 bonds with max type 1
  4 angles with max type 1
  3 dihedrals with max type 1
  0 impropers with max type 0
Created 24000 atoms
  create_atoms CPU = 0.00982218 secs
Neighbor list info ...
  update every 1 steps, delay 10 steps, check yes
  max neighbors/atom: 2000, page size: 100000
  master list distance cutoff = 16
  ghost atom cutoff = 16
  binsize = 8, bins = 15 15 15
  1 neighbor lists, perpetual/occasional/extra = 1 0 0
  (1) pair lj/cut, perpetual
      attributes: half, newton on
      pair build: half/bin/newton
      stencil: half/bin/3d/newton
      bin: standard
Setting up Verlet run ...
  Unit style    : metal
  Current step  : 0
  Time step     : 0.001
Per MPI rank memory allocation (min/avg/max) = 18.41 | 18.41 | 18.41 Mbytes
Step Temp E_pair E_mol TotEng Press 
       0          298    248.01313     170.5304    1342.9736    7677.1352 
    1000    397.07671   -506.07122    612.91042    1338.6165    1324.8862 
Loop time of 16.8531 on 4 procs for 1000 steps with 24000 atoms

Performance: 5.127 ns/day, 4.681 hours/ns, 59.336 timesteps/s
94.0% CPU use with 4 MPI tasks x 1 OpenMP threads

MPI task timing breakdown:
Section |  min time  |  avg time  |  max time  |%varavg| %total
---------------------------------------------------------------
Pair    | 12.339     | 12.427     | 12.577     |   2.7 | 73.74
Bond    | 1.4586     | 1.4802     | 1.4958     |   1.1 |  8.78
Neigh   | 1.4187     | 1.4218     | 1.4249     |   0.2 |  8.44
Comm    | 1.1129     | 1.2644     | 1.3401     |   8.2 |  7.50
Output  | 6.6869e-05 | 7.0931e-05 | 7.682e-05  |   0.0 |  0.00
Modify  | 0.13531    | 0.13588    | 0.13668    |   0.1 |  0.81
Other   |            | 0.1233     |            |       |  0.73

Nlocal:    6000 ave 6021 max 5949 min
Histogram: 1 0 0 0 0 0 0 0 1 2
Nghost:    11676.8 ave 11723 max 11629 min
Histogram: 1 1 0 0 0 0 0 0 1 1
Neighs:    701052 ave 710126 max 691072 min
Histogram: 1 0 0 0 0 2 0 0 0 1

Total # of neighbors = 2804206
Ave neighs/atom = 116.842
Ave special neighs/atom = 4
Neighbor list builds = 46
Dangerous builds = 0
Setting up Verlet run ...
  Unit style    : metal
  Current step  : 1000
  Time step     : 0.001
Per MPI rank memory allocation (min/avg/max) = 18.41 | 18.41 | 18.41 Mbytes
Step Density Temp Press 
    1000   0.33123908    397.07671    1324.8862 
    1100   0.33123908    363.90323         1195 
    1200   0.33123908    351.16871    1016.0356 
    1300   0.33123908    327.52396    46.994319 
    1400   0.33123908    312.58234   -331.44451 
    1500   0.33123908    297.83782   -225.32198 
    1600   0.33123908    290.11275   -223.18292 
    1700   0.33123908    287.96615   -76.401465 
    1800   0.33123908    294.47854    86.405464 
    1900   0.33123908    308.03059   -202.50848 
    2000   0.33123908    305.49315   -349.15936 
    2100   0.33123908    296.49762   -575.52001 
    2200   0.33123908     286.9649    -848.6972 
    2300   0.33123908    291.64612   -581.67159 
    2400   0.33123908    305.77562   -180.32332 
    2500   0.33123908     307.3809     170.8964 
    2600   0.33123908    300.07992    728.78805 
    2700   0.33123908     289.1803    824.97322 
    2800   0.33123908    289.98712    569.08252 
    2900   0.33123908    302.32681    303.44469 
    3000   0.33123908    306.90066   -103.78577 
    3100   0.33123908    298.98546   -596.06994 
    3200   0.33123908    292.04605   -872.05112 
    3300   0.33123908    294.38839   -941.92434 
    3400   0.33123908    299.73652   -634.57154 
    3500   0.33123908    300.23827   -314.81903 
    3600   0.33123908    297.88517    56.885314 
    3700   0.33123908     293.0477    416.48155 
    3800   0.33123908    298.76153    572.73094 
    3900   0.33123908    303.15778    527.36998 
    4000   0.33123908    300.74664    297.10823 
    4100   0.33123908    295.80619    45.241572 
    4200   0.33123908    294.84809    -243.0487 
    4300   0.33123908     299.1188   -410.38299 
    4400   0.33123908    300.18128   -463.30291 
    4500   0.33123908    299.44727   -486.11874 
    4600   0.33123908    296.88692   -491.44279 
    4700   0.33123908    290.96957    -233.1526 
    4800   0.33123908    296.34329   -54.365657 
    4900   0.33123908    301.86133    66.553203 
    5000   0.33123908    304.80893    306.26735 
    5100   0.33123908    297.50375    395.02967 
    5200   0.33123908    293.14147    341.46424 
    5300   0.33123908     293.5049    96.722147 
    5400   0.33123908    297.82794    31.779841 
    5500   0.33123908    301.42031   -115.60113 
    5600   0.33123908    299.21201   -378.45311 
    5700   0.33123908    296.43696   -509.68733 
    5800   0.33123908    298.58586   -507.47248 
    5900   0.33123908    297.62784   -363.70456 
    6000   0.33123908    297.38665   -247.75581 
Loop time of 84.2862 on 4 procs for 5000 steps with 24000 atoms

Performance: 5.125 ns/day, 4.683 hours/ns, 59.322 timesteps/s
93.4% CPU use with 4 MPI tasks x 1 OpenMP threads

MPI task timing breakdown:
Section |  min time  |  avg time  |  max time  |%varavg| %total
---------------------------------------------------------------
Pair    | 60.162     | 62.328     | 64.484     |  21.3 | 73.95
Bond    | 7.2524     | 7.3045     | 7.3787     |   1.9 |  8.67
Neigh   | 4.8258     | 4.8325     | 4.8444     |   0.3 |  5.73
Comm    | 5.6381     | 7.8639     | 10.01      |  60.7 |  9.33
Output  | 0.0043199  | 0.0050288  | 0.0064965  |   1.2 |  0.01
Modify  | 1.1993     | 1.242      | 1.2947     |   3.3 |  1.47
Other   |            | 0.7103     |            |       |  0.84

Nlocal:    6000 ave 6149 max 5901 min
Histogram: 2 0 0 0 0 1 0 0 0 1
Nghost:    11848.8 ave 12019 max 11643 min
Histogram: 1 0 0 1 0 0 0 0 1 1
Neighs:    736742 ave 768709 max 705610 min
Histogram: 1 0 0 1 0 0 1 0 0 1

Total # of neighbors = 2946967
Ave neighs/atom = 122.79
Ave special neighs/atom = 4
Neighbor list builds = 157
Dangerous builds = 0
Setting up Verlet run ...
  Unit style    : metal
  Current step  : 6000
  Time step     : 0.001
Per MPI rank memory allocation (min/avg/max) = 18.41 | 18.41 | 18.41 Mbytes
Step Density Temp Press 
    6000   0.33123908    297.38665   -247.75581 
    6100   0.33327456    297.67264   -245.08922 
    6200   0.33532675     298.9172    29.271706 
    6300   0.33739583    300.90712    170.37677 
    6400   0.33948197     299.1702    175.54998 
    6500   0.34158533    295.08011    193.77759 
    6600   0.34370612    295.06037    51.711656 
    6700   0.34584449    298.57861   -41.618137 
    6800   0.34800064    298.69103   -125.13182 
    6900   0.35017475    301.56785   -251.28304 
    7000   0.35236701    298.29302   -421.18651 
    7100    0.3545776    297.70425   -499.29777 
    7200   0.35680673    297.62556   -402.36989 
    7300   0.35905457    298.31368   -282.43309 
    7400   0.36132135    297.94584   -225.65377 
    7500   0.36360724    298.77735   -47.761007 
    7600   0.36591245    297.17206    163.54852 
    7700   0.36823719    296.83666    190.31995 
    7800   0.37058167    301.89822    164.63301 
    7900   0.37294609    298.48147    138.74048 
    8000   0.37533067     296.5321    45.053755 
    8100   0.37773562    296.60513   -88.602494 
    8200   0.38016116    298.30983   -262.21258 
    8300   0.38260752    298.74157    -487.0653 
    8400    0.3850749    300.09567   -619.54659 
    8500   0.38756355    298.75338   -369.82357 
    8600   0.39007369    298.68214   -321.57104 
    8700   0.39260556    297.46546   -207.59154 
    8800   0.39515938    298.74436     -33.3891 
    8900    0.3977354    298.20165    80.636507 
    9000   0.40033386    297.62131    211.24844 
    9100     0.402955     300.3937     176.6792 
    9200   0.40559908    299.01833    19.322114 
    9300   0.40826634    298.08949   -149.09393 
    9400   0.41095704    297.82934   -324.11732 
    9500   0.41367143    297.26951   -400.52671 
    9600   0.41640978    298.78529   -366.41101 
    9700   0.41917236    299.17795   -328.04126 
    9800   0.42195942     300.5299   -359.58901 
    9900   0.42477125    296.60085   -173.38501 
   10000   0.42760812    297.11762   -43.087569 
   10100    0.4304703      296.102    22.559289 
   10200   0.43335809    298.56867    88.174533 
   10300   0.43627176    299.83184   -7.1739529 
   10400   0.43921161    297.96532    51.476725 
   10500   0.44217794    297.06091   -49.306804 
   10600   0.44517104    295.65992   -169.45668 
   10700   0.44819121    298.92493   -198.99711 
   10800   0.45123877    298.72449   -208.92308 
   10900   0.45431401    297.61772   -373.37613 
   11000   0.45741727    299.44351   -527.29874 
   11100   0.46054885    298.82231   -278.09128 
   11200   0.46370908    299.04896   -258.14721 
   11300    0.4668983    297.43408   -176.15149 
   11400   0.47011682     298.3774    1.6242959 
   11500     0.473365    299.38365    117.84986 
   11600   0.47664317    298.28217    154.68909 
   11700   0.47995168    299.92291    37.800636 
   11800   0.48329088    296.22918    57.024484 
   11900   0.48666112    297.81093   -103.62977 
   12000   0.49006278    299.43925   -219.14135 
   12100   0.49349622    297.93042   -244.72576 
   12200    0.4969618    300.12768   -283.51363 
   12300   0.50045991    301.50209   -405.34064 
   12400   0.50399092    299.74017   -342.42588 
   12500   0.50755523    298.60311   -137.52731 
   12600   0.51115324    297.38452   -91.153765 
   12700   0.51478533     298.5032    56.552346 
   12800   0.51845191    300.58411    278.99402 
   12900   0.52215339    300.07657    150.49285 
   13000    0.5258902    296.62716    117.86792 
   13100   0.52966275    295.99158    115.13724 
   13200   0.53347147    296.38827   -67.932954 
   13300   0.53731679    297.86805   -141.31604 
   13400   0.54119916    301.62905   -301.66088 
   13500   0.54511902     300.7453    -364.1237 
   13600   0.54907683    298.56112   -217.91377 
   13700   0.55307304    296.19751   -257.22339 
   13800   0.55710813    296.49674   -135.14631 
   13900   0.56118257    299.20859   -5.9542331 
   14000   0.56529683    298.78221    127.07502 
   14100   0.56945141    298.16193    232.67745 
   14200    0.5736468    297.79849    180.74997 
   14300   0.57788351    297.19637    200.64402 
   14400   0.58216204    296.00205    220.09514 
   14500   0.58648291    300.76889    34.304957 
   14600   0.59084665    300.71102   -75.075202 
   14700   0.59525378    298.77533   -52.078798 
   14800   0.59970486    300.01095   -18.506429 
   14900   0.60420042    295.54714    -46.56746 
   15000   0.60874103      300.835    20.199474 
   15100   0.61332725    297.40987    259.37433 
   15200   0.61795966    295.94544    298.81426 
   15300   0.62263884    299.03234    342.34778 
   15400   0.62736537    298.55736    350.00575 
   15500   0.63213987    297.85353    338.90239 
   15600   0.63696294     296.1588    450.56141 
   15700    0.6418352    298.13613    386.91348 
   15800   0.64675727    300.38845    309.88436 
   15900   0.65172981    301.61066    468.42434 
   16000   0.65675345    298.57526    371.90602 
Loop time of 231.312 on 4 procs for 10000 steps with 24000 atoms

Performance: 3.735 ns/day, 6.425 hours/ns, 43.232 timesteps/s
93.0% CPU use with 4 MPI tasks x 1 OpenMP threads

MPI task timing breakdown:
Section |  min time  |  avg time  |  max time  |%varavg| %total
---------------------------------------------------------------
Pair    | 177.53     | 183.06     | 187.92     |  27.5 | 79.14
Bond    | 14.736     | 14.856     | 14.956     |   2.0 |  6.42
Neigh   | 10.965     | 10.983     | 11.012     |   0.5 |  4.75
Comm    | 13.221     | 18.096     | 23.605     |  87.4 |  7.82
Output  | 0.013026   | 0.014472   | 0.017984   |   1.7 |  0.01
Modify  | 2.4867     | 2.5985     | 2.7071     |   5.3 |  1.12
Other   |            | 1.706      |            |       |  0.74

Nlocal:    6000 ave 6052 max 5968 min
Histogram: 1 0 1 1 0 0 0 0 0 1
Nghost:    16283.2 ave 16303 max 16246 min
Histogram: 1 0 0 0 0 0 0 1 1 1
Neighs:    1.39986e+06 ave 1.43837e+06 max 1.36274e+06 min
Histogram: 1 1 0 0 0 0 0 0 1 1

Total # of neighbors = 5599432
Ave neighs/atom = 233.31
Ave special neighs/atom = 4
Neighbor list builds = 252
Dangerous builds = 0
Setting up Verlet run ...
  Unit style    : metal
  Current step  : 16000
  Time step     : 0.001
Per MPI rank memory allocation (min/avg/max) = 21.01 | 21.3 | 21.39 Mbytes
Step Density Temp Press 
   16000   0.65675345    298.57526    791.49397 
   16100   0.65675345    297.46648    510.14845 
   16200   0.65675345    293.12487    528.94825 
   16300   0.65675345    297.89158    535.71869 
   16400   0.65675345    297.78959    478.70292 
   16500   0.65675345    298.78709    428.66541 
   16600   0.65675345    296.22847    440.65971 
   16700   0.65675345    298.29086    582.25492 
   16800   0.65675345    297.49146     622.0606 
   16900   0.65675345    299.05306    496.84633 
   17000   0.65675345    297.21537    760.98211 
   17100   0.65675345    298.03383    544.28789 
   17200   0.65675345    296.03179    354.52622 
   17300   0.65675345    295.80071    503.84317 
   17400   0.65675345    297.36057    554.79215 
   17500   0.65675345    300.28653     354.2492 
   17600   0.65675345    300.09952    235.95671 
   17700   0.65675345    297.05383    302.02112 
   17800   0.65675345     295.6953     378.6257 
   17900   0.65675345    299.79074    505.44475 
   18000   0.65675345    299.79306    544.44527 
   18100   0.65675345    298.57323    553.30892 
   18200   0.65675345    295.81434    386.97717 
   18300   0.65675345    296.50101    423.53944 
   18400   0.65675345    301.88577    760.29804 
   18500   0.65675345    300.05599    578.69438 
   18600   0.65675345    298.37782    200.08497 
   18700   0.65675345    296.66382    487.43926 
   18800   0.65675345    296.49607    487.00375 
   18900   0.65675345    298.09426    268.21116 
   19000   0.65675345     299.4899     545.3201 
   19100   0.65675345    298.69265    437.54133 
   19200   0.65675345    296.08494    334.98124 
   19300   0.65675345    299.18176    399.79516 
   19400   0.65675345    297.92109    365.59234 
   19500   0.65675345    298.95567    245.94298 
   19600   0.65675345    297.25524    470.20525 
   19700   0.65675345    297.45844    264.58303 
   19800   0.65675345    298.16712    355.49978 
   19900   0.65675345     299.5426    449.47478 
   20000   0.65675345    297.98559    388.18813 
   20100   0.65675345    296.87028     547.2564 
   20200   0.65675345    297.22857    377.79044 
   20300   0.65675345    296.53961      337.497 
   20400   0.65675345    296.15137    352.69514 
   20500   0.65675345    297.87738    293.06396 
   20600   0.65675345    299.76169    313.38982 
   20700   0.65675345    296.73603    498.66419 
   20800   0.65675345    296.91019    339.85797 
   20900   0.65675345    294.71231    343.73646 
   21000   0.65675345    297.04564    670.92541 
   21100   0.65675345    298.22294    525.04527 
   21200   0.65675345    298.24609    309.21535 
   21300   0.65675345    295.75797    369.09973 
   21400   0.65675345    297.60256    377.24285 
   21500   0.65675345    297.40967    344.65347 
   21600   0.65675345    296.90328    300.14581 
   21700   0.65675345    299.40382    107.99649 
   21800   0.65675345    298.31853    255.90217 
   21900   0.65675345    298.11247    545.15191 
   22000   0.65675345    300.40373    470.67375 
   22100   0.65675345    299.33109    418.89902 
   22200   0.65675345    298.41486    534.23378 
   22300   0.65675345    298.48231    362.71289 
   22400   0.65675345    295.81587    426.73619 
   22500   0.65675345    298.29925    494.78943 
   22600   0.65675345    300.18975    425.30798 
   22700   0.65675345    300.37325    344.82616 
   22800   0.65675345     298.6192    328.22249 
   22900   0.65675345    297.23899    392.78562 
   23000   0.65675345    296.99933    573.25712 
   23100   0.65675345    298.39437    514.39549 
   23200   0.65675345    300.01647    288.43814 
   23300   0.65675345    298.44568    194.11848 
   23400   0.65675345    294.34439    261.03497 
   23500   0.65675345    299.96437    232.45507 
   23600   0.65675345    298.77555    443.52851 
   23700   0.65675345    300.22507    458.23435 
   23800   0.65675345    299.93029    492.44811 
   23900   0.65675345    296.30279     609.8329 
   24000   0.65675345     299.6021    378.68206 
   24100   0.65675345    300.87864    213.48113 
   24200   0.65675345    297.58306    381.77165 
   24300   0.65675345    294.88899    308.42778 
   24400   0.65675345    297.27025    188.01977 
   24500   0.65675345    299.01101    257.43272 
   24600   0.65675345    299.80064     164.2678 
   24700   0.65675345    297.41619    372.96201 
   24800   0.65675345    295.62417    328.08553 
   24900   0.65675345    298.95559    352.96969 
   25000   0.65675345    298.27696    314.14891 
   25100   0.65675345    299.40675    249.60147 
   25200   0.65675345    299.90741    317.63636 
   25300   0.65675345    297.07134    430.34818 
   25400   0.65675345     300.6656     89.49153 
   25500   0.65675345    297.15373    249.55895 
   25600   0.65675345    297.93569    510.90367 
   25700   0.65675345    300.36408    394.67989 
   25800   0.65675345    302.43352    370.18492 
   25900   0.65675345    297.79231    431.91748 
   26000   0.65675345    296.31272    401.10242 
   26100   0.65675345     299.2526    310.65143 
   26200   0.65675345    299.66892    295.41115 
   26300   0.65675345    298.84367    470.19001 
   26400   0.65675345    301.00489    558.12221 
   26500   0.65675345    298.79481     473.4082 
   26600   0.65675345    297.86608    347.29277 
   26700   0.65675345    296.10333    214.55034 
   26800   0.65675345    300.14843    176.25952 
   26900   0.65675345    298.01257    215.07763 
   27000   0.65675345    297.31385    420.47999 
   27100   0.65675345    297.61116    287.79708 
   27200   0.65675345    296.98055    133.61784 
   27300   0.65675345     299.4535    407.77161 
   27400   0.65675345    299.61927    545.23727 
   27500   0.65675345    298.21084    342.01548 
   27600   0.65675345    297.20976    333.96184 
   27700   0.65675345    297.93347    354.79927 
   27800   0.65675345    299.47123    519.27558 
   27900   0.65675345    299.61233    491.96139 
   28000   0.65675345    299.03954    299.64414 
   28100   0.65675345    297.79211    342.53141 
   28200   0.65675345     297.1278    397.01407 
   28300   0.65675345    299.32498    331.78196 
   28400   0.65675345    296.85446    178.17355 
   28500   0.65675345    294.41943    150.81964 
   28600   0.65675345    293.81447    358.81205 
   28700   0.65675345     298.2336    350.31245 
   28800   0.65675345    298.46874    425.83973 
   28900   0.65675345    297.12039     211.4133 
   29000   0.65675345    299.83308    357.52067 
   29100   0.65675345     296.3857    630.74405 
   29200   0.65675345    296.09578    336.58485 
   29300   0.65675345    297.24852    252.81643 
   29400   0.65675345    300.19373    502.93562 
   29500   0.65675345    298.71515     342.4845 
   29600   0.65675345    297.31059   -46.483322 
   29700   0.65675345    297.31803     268.6926 
   29800   0.65675345    298.98819    237.03171 
   29900   0.65675345    296.03833    352.11589 
   30000   0.65675345    298.12327    377.66691 
   30100   0.65675345     301.1709     380.6459 
   30200   0.65675345    302.14258    310.30918 
   30300   0.65675345    299.59082    476.50886 
   30400   0.65675345    296.40091    211.63024 
   30500   0.65675345    298.67548    137.77536 
   30600   0.65675345    299.66075    298.10844 
   30700   0.65675345    300.67244    375.29503 
   30800   0.65675345    299.78676      528.336 
   30900   0.65675345    297.11338    274.43362 
   31000   0.65675345     298.6745    331.95121 
   31100   0.65675345    298.30901    434.80539 
   31200   0.65675345    299.53246    264.16678 
   31300   0.65675345    297.35414      373.709 
   31400   0.65675345    295.33166    275.13467 
   31500   0.65675345    298.54453    385.91664 
   31600   0.65675345    300.17051    352.15725 
   31700   0.65675345    298.26032    205.81477 
   31800   0.65675345    297.02401    358.42598 
   31900   0.65675345    297.18997    425.28061 
   32000   0.65675345    300.05407    68.792693 
   32100   0.65675345     298.8692    166.38801 
   32200   0.65675345    293.36737    439.01288 
   32300   0.65675345    295.89641    153.34094 
   32400   0.65675345    298.93895    223.71708 
   32500   0.65675345    298.10245    404.02992 
   32600   0.65675345    297.80717    377.50101 
   32700   0.65675345    299.37702    332.21731 
   32800   0.65675345     300.1997    190.52953 
   32900   0.65675345    296.53731    261.05269 
   33000   0.65675345    294.97044    347.33581 
   33100   0.65675345    297.59509    392.79717 
   33200   0.65675345    298.53735    532.34684 
   33300   0.65675345    298.51453    479.11708 
   33400   0.65675345    296.65777    265.98241 
   33500   0.65675345    297.21344    368.23026 
   33600   0.65675345    295.02739    123.21104 
   33700   0.65675345    296.64192    33.517712 
   33800   0.65675345    296.89576    279.06525 
   33900   0.65675345    296.81177    327.59675 
   34000   0.65675345    301.93259    60.557329 
   34100   0.65675345    298.15576    443.28249 
   34200   0.65675345    296.08644    309.41821 
   34300   0.65675345    297.49912    507.01359 
   34400   0.65675345    299.45826    333.16087 
   34500   0.65675345    300.65291    320.18927 
   34600   0.65675345    298.27385    344.88747 
   34700   0.65675345    295.45651    401.09993 
   34800   0.65675345    297.95504    367.58261 
   34900   0.65675345    299.37372    364.49359 
   35000   0.65675345     297.8012     304.9404 
   35100   0.65675345    298.95806    280.30898 
   35200   0.65675345     294.1022    530.75796 
   35300   0.65675345    298.48193    386.41896 
   35400   0.65675345    301.61975    530.77427 
   35500   0.65675345    298.43346     489.9811 
   35600   0.65675345    297.49855    361.10326 
   35700   0.65675345    296.98491    337.75858 
   35800   0.65675345    296.82881    290.31826 
   35900   0.65675345    302.18716    192.06422 
   36000   0.65675345    298.85228    233.03418 
   36100   0.65675345    298.76907    181.68168 
   36200   0.65675345    297.21796    33.678817 
   36300   0.65675345     300.9115    35.985097 
   36400   0.65675345     298.6791    180.98753 
   36500   0.65675345    298.56362     286.2463 
   36600   0.65675345    299.17048    411.07927 
   36700   0.65675345    299.08724    176.38751 
   36800   0.65675345    298.55368    305.90865 
   36900   0.65675345       298.07    504.59682 
   37000   0.65675345     298.6966    404.24482 
   37100   0.65675345    301.57366    426.06509 
   37200   0.65675345    300.42925    407.13719 
   37300   0.65675345    297.10514    198.52632 
   37400   0.65675345    298.37025    130.11428 
   37500   0.65675345    296.77762    380.47236 
   37600   0.65675345    296.06655    182.38087 
   37700   0.65675345    296.50528    110.04897 
   37800   0.65675345    298.82683    336.11307 
   37900   0.65675345    300.46428    367.82007 
   38000   0.65675345     297.5669    360.09156 
   38100   0.65675345    297.63438    321.39553 
   38200   0.65675345    296.84212    405.31052 
   38300   0.65675345    300.10061    424.17601 
   38400   0.65675345     296.7609    316.54884 
   38500   0.65675345    295.76435    340.85705 
   38600   0.65675345    295.45502    463.91559 
   38700   0.65675345    298.08553     203.0915 
   38800   0.65675345    299.08412    165.52629 
   38900   0.65675345    299.28371    241.42167 
   39000   0.65675345    298.37404    114.44623 
   39100   0.65675345    298.04375   -141.53273 
   39200   0.65675345    295.90348    300.15159 
   39300   0.65675345    297.28259    313.15658 
   39400   0.65675345    299.23532    268.43708 
   39500   0.65675345    297.29374    625.17583 
   39600   0.65675345    299.25593     548.7282 
   39700   0.65675345    299.90563    58.228917 
   39800   0.65675345    295.25678    216.04636 
   39900   0.65675345    295.25965    386.97842 
   40000   0.65675345    297.55586    128.57397 
   40100   0.65675345    299.60457    75.672043 
   40200   0.65675345    299.01334    222.31316 
   40300   0.65675345    297.72209    217.76295 
   40400   0.65675345    295.05677    294.17764 
   40500   0.65675345    297.11648    333.13364 
   40600   0.65675345    298.64012    420.35096 
   40700   0.65675345    299.16972    540.37228 
   40800   0.65675345    299.31928    436.48777 
   40900   0.65675345    296.06269    477.23701 
   41000   0.65675345    298.12629    508.03047 
   41100   0.65675345    298.04912     281.5176 
   41200   0.65675345    296.17276    69.708149 
   41300   0.65675345    297.15572     67.26006 
   41400   0.65675345    295.90065    285.08017 
   41500   0.65675345    298.77084    228.49308 
   41600   0.65675345    299.55628    70.404548 
   41700   0.65675345    296.46983    247.97631 
   41800   0.65675345    298.49553     325.1243 
   41900   0.65675345    297.96677    254.17144 
   42000   0.65675345     297.1338    318.26775 
   42100   0.65675345    296.73999    183.86425 
   42200   0.65675345    298.54031    414.44288 
   42300   0.65675345    298.26363    184.97033 
   42400   0.65675345    297.11256    209.02193 
   42500   0.65675345    297.29019    383.31639 
   42600   0.65675345    297.03254    226.52388 
   42700   0.65675345    296.61426    197.70698 
   42800   0.65675345    298.08305    332.42246 
   42900   0.65675345    297.09976    279.72183 
   43000   0.65675345    297.52967      195.185 
   43100   0.65675345    298.62526     470.9562 
   43200   0.65675345    299.10332    79.496356 
   43300   0.65675345    299.16313    150.03127 
   43400   0.65675345    297.53447    265.86345 
   43500   0.65675345     295.3411    425.37625 
   43600   0.65675345    297.19901     260.0161 
   43700   0.65675345    299.32784    187.91326 
   43800   0.65675345     299.0083     248.0439 
   43900   0.65675345    296.47475    195.22555 
   44000   0.65675345    295.40497    158.33204 
   44100   0.65675345     297.1609    192.67592 
   44200   0.65675345     298.9904    582.32361 
   44300   0.65675345    297.91768    120.21154 
   44400   0.65675345    298.30681    -145.3721 
   44500   0.65675345    296.44875    314.69472 
   44600   0.65675345     297.9644    452.66214 
   44700   0.65675345    297.96286    199.43797 
   44800   0.65675345    299.16864    124.00561 
   44900   0.65675345    297.35693    301.84888 
   45000   0.65675345    295.69875    272.99116 
   45100   0.65675345    297.07951    295.13674 
   45200   0.65675345    299.41636     269.4321 
   45300   0.65675345    296.69425    341.51634 
   45400   0.65675345    300.63553     221.8933 
   45500   0.65675345    298.75351    113.77246 
   45600   0.65675345    296.43902    237.74835 
   45700   0.65675345    296.38518    97.017434 
   45800   0.65675345    297.27488    243.40171 
   45900   0.65675345    297.43742      492.809 
   46000   0.65675345    300.70226    356.51168 
   46100   0.65675345    300.38224    106.82222 
   46200   0.65675345    297.87129    216.27777 
   46300   0.65675345    296.96218    386.71002 
   46400   0.65675345    297.53237    265.95335 
   46500   0.65675345    296.76918    206.60579 
   46600   0.65675345    297.08136    327.76778 
   46700   0.65675345    295.11873    248.37658 
   46800   0.65675345    297.10009    102.53385 
   46900   0.65675345    297.80831    155.19216 
   47000   0.65675345    299.23725    184.43788 
   47100   0.65675345    297.65082     256.7436 
   47200   0.65675345    296.29545    182.53944 
   47300   0.65675345    294.98555    187.08218 
   47400   0.65675345    298.69434    372.22387 
   47500   0.65675345    297.64713    512.90809 
   47600   0.65675345    300.26804    285.19793 
   47700   0.65675345    298.52523    604.52404 
   47800   0.65675345    293.41622    412.00681 
   47900   0.65675345    295.31604    162.98174 
   48000   0.65675345    298.27871    490.32001 
   48100   0.65675345    297.93416    517.68174 
   48200   0.65675345    298.73238    179.08249 
   48300   0.65675345    299.09444    280.72773 
   48400   0.65675345    296.88853    551.41361 
   48500   0.65675345     295.1992    56.404102 
   48600   0.65675345    295.13537   -26.355264 
   48700   0.65675345    297.63862    177.45818 
   48800   0.65675345    298.45522    306.16249 
   48900   0.65675345    298.42163    323.29873 
   49000   0.65675345    297.13712    57.615219 
   49100   0.65675345    296.88002    271.23231 
   49200   0.65675345    297.88685    544.24226 
   49300   0.65675345    301.31446    645.06368 
   49400   0.65675345    301.92954    391.93468 
   49500   0.65675345     300.3026    217.17045 
   49600   0.65675345    297.79815     391.5426 
   49700   0.65675345    299.75915    -23.80213 
   49800   0.65675345      296.868    107.89684 
   49900   0.65675345    299.08074    263.84683 
   50000   0.65675345    299.56075    239.93643 
Loop time of 1153.91 on 4 procs for 34000 steps with 24000 atoms

Performance: 2.546 ns/day, 9.427 hours/ns, 29.465 timesteps/s
86.7% CPU use with 4 MPI tasks x 1 OpenMP threads

MPI task timing breakdown:
Section |  min time  |  avg time  |  max time  |%varavg| %total
---------------------------------------------------------------
Pair    | 873.82     | 898.14     | 913.76     |  55.2 | 77.83
Bond    | 51.418     | 52.009     | 52.404     |   5.7 |  4.51
Neigh   | 42.029     | 42.234     | 42.514     |   3.2 |  3.66
Comm    | 127.94     | 143.58     | 168.04     | 138.7 | 12.44
Output  | 0.052714   | 0.059013   | 0.066534   |   2.0 |  0.01
Modify  | 9.3472     | 9.9778     | 10.752     |  16.6 |  0.86
Other   |            | 7.9        |            |       |  0.68

Nlocal:    6000 ave 6041 max 5933 min
Histogram: 1 0 0 0 0 0 1 0 1 1
Nghost:    16321 ave 16387 max 16287 min
Histogram: 2 0 0 1 0 0 0 0 0 1
Neighs:    1.4036e+06 ave 1.43539e+06 max 1.37623e+06 min
Histogram: 1 0 1 0 0 1 0 0 0 1

Total # of neighbors = 5614410
Ave neighs/atom = 233.934
Ave special neighs/atom = 4
Neighbor list builds = 616
Dangerous builds = 0
Setting up Verlet run ...
  Unit style    : metal
  Current step  : 50000
  Time step     : 0.001
Per MPI rank memory allocation (min/avg/max) = 21.39 | 21.4 | 21.4 Mbytes
Step Density Temp Press 
   50000   0.65675345    299.56075    239.93643 
   50100   0.65482659    297.10395    221.54542 
   50200   0.65032911    296.39282   -27.262937 
   50300   0.64620763    295.25218   -152.17843 
   50400   0.64373337    295.60683    46.688318 
   50500   0.64242819    297.03434    145.45631 
   50600   0.64143393    297.63974    224.46419 
   50700   0.64061259    296.84364    131.91225 
   50800   0.63934216     296.0562    168.35782 
   50900   0.63727658    297.44323    139.43174 
   51000   0.63511736    298.34338      126.816 
   51100   0.63329958     296.3656   -109.18509 
   51200   0.63223144    296.62535   -13.060391 
   51300     0.632375    298.53888    39.896844 
   51400   0.63288373    300.91369   -139.24946 
   51500   0.63356261    299.45335   -121.58186 
   51600   0.63346839    296.42986    68.052736 
   51700   0.63303682    296.91553    256.26276 
   51800   0.63225813    299.86935    180.30032 
   51900   0.63122488    298.95695   -49.727637 
   52000   0.63061134     299.5786   -127.77418 
   52100   0.63052672    297.91672   -68.535474 
   52200   0.63081473    296.73531    10.750464 
   52300   0.63122922    297.61025   -80.857149 
   52400    0.6314948     297.8527   -42.703818 
   52500   0.63127732    299.33172    27.001589 
   52600   0.63089293    298.25867   -22.529035 
   52700   0.63004029     296.7358   -137.25128 
   52800   0.62963822    298.76744   -187.51032 
   52900   0.62968849    298.63767    21.784849 
   53000   0.62978376    300.79086    36.253704 
   53100   0.62950704    297.52158    156.39733 
   53200   0.62873961    297.55585   -91.576824 
   53300   0.62834377     296.3294    27.440146 
   53400    0.6280903    299.48949     225.7492 
   53500   0.62791097    298.42034    44.892616 
   53600   0.62805065    297.23124    45.280689 
   53700   0.62778347    296.52106   -220.20597 
   53800    0.6276843    297.39825    25.025037 
   53900   0.62703015    300.21448    44.181893 
   54000    0.6263367    300.46052   -23.317647 
   54100   0.62592981    299.82292   -70.306259 
   54200   0.62588509    297.31583   -20.588673 
   54300   0.62615382    296.88233   -65.992163 
   54400   0.62630288    300.01815    17.197356 
   54500    0.6267213     300.7256    73.869389 
   54600    0.6271694    298.36942    76.698088 
   54700   0.62738847    296.58529    -56.98529 
   54800   0.62783198    295.66252    167.08796 
   54900    0.6276841    299.79305    208.50032 
   55000   0.62726726    297.99568    117.72834 
   55100   0.62676278    298.44814    69.208864 
   55200   0.62625495    296.55952    40.852539 
   55300   0.62570796    300.18855    96.510075 
   55400   0.62555797    301.17687    150.67504 
   55500   0.62477867    299.03003    197.11672 
   55600   0.62333282    298.99071    76.216649 
   55700   0.62246865    297.05773   -126.17105 
   55800   0.62281918    295.64606   -101.09551 
   55900   0.62407701    296.96433    9.4314118 
   56000   0.62557295    300.07435    87.017592 
   56100   0.62658347    300.29112    55.569282 
   56200    0.6269985    298.45858   -54.389426 
   56300   0.62747518    296.91128   -28.127463 
   56400   0.62756952    298.52654   -151.20341 
   56500   0.62764459    298.00835    1.3600408 
   56600   0.62709771    300.85256   -11.400061 
   56700   0.62661227    297.51956     111.4058 
   56800   0.62615278      295.449    115.58222 
   56900   0.62624027    295.92072    74.520627 
   57000    0.6270932    297.86189    186.03201 
   57100   0.62801035    296.56164    171.73119 
   57200   0.62851095    299.58975    214.49752 
   57300   0.62846753    295.90252    103.60139 
   57400   0.62798115    297.40695   -6.5230496 
   57500   0.62767887    296.92206   -47.525597 
   57600   0.62733405    297.64588    133.82822 
   57700   0.62673737    300.09991    143.70771 
   57800   0.62570495    301.53787   -82.900527 
   57900    0.6245852    296.94916   -42.277144 
   58000   0.62285239    296.64239   -91.203206 
   58100   0.62130154    297.21847   -146.42793 
   58200   0.62035349    299.51462   -74.218421 
   58300   0.62076903    299.11303    50.910253 
   58400   0.62183391    296.71811    167.84624 
   58500   0.62268932    297.69151  -0.61588212 
   58600   0.62359839    293.46588    -71.91958 
   58700   0.62372261    295.55327    1.7245004 
   58800   0.62335889    299.00953   -117.22555 
   58900   0.62326911    298.29681   -128.35035 
   59000   0.62347866    297.66733   -142.89449 
   59100   0.62375163    296.40577    -110.9334 
   59200   0.62418917     296.3185    2.8103893 
   59300   0.62447383    299.35554   -126.06783 
   59400   0.62457927    298.19467    -52.73039 
   59500   0.62431806    298.48411    34.686236 
   59600    0.6242479    296.44644    55.081402 
   59700   0.62454799    294.42375    45.569641 
   59800   0.62517112    298.48775    34.143238 
   59900   0.62564409    300.18677    108.43612 
   60000   0.62557883    297.12442    205.93647 
   60100   0.62465697    297.45147    63.023163 
   60200   0.62390696    296.78928   -48.918603 
   60300   0.62358362    296.54947   -146.02314 
   60400   0.62370026    298.26516     10.18636 
   60500   0.62378237    299.43837   -34.479601 
   60600   0.62346893    298.69507   -15.518336 
   60700   0.62340578    294.08082     69.61172 
   60800    0.6232331    296.79941    90.777089 
   60900   0.62279423    298.50074   -25.487256 
   61000   0.62271539    296.28175     9.882056 
   61100   0.62237875    298.70624    68.082149 
   61200   0.62216762    299.41582    256.28718 
   61300   0.62223833    298.15291    117.96994 
   61400   0.62251699    297.51755   -146.20759 
   61500   0.62354219     297.9004     103.4412 
   61600    0.6248599    297.73697    85.031928 
   61700   0.62589456     299.6374   -19.973528 
   61800   0.62633748    297.52174   -184.48036 
   61900   0.62622546    296.79307   -78.429343 
   62000   0.62591042    297.01647    170.48903 
   62100   0.62558705    296.98125    34.020515 
   62200   0.62519237    299.74266   -123.93242 
   62300   0.62449835    298.63009   -6.1935901 
   62400   0.62331519    296.15994   -49.205927 
   62500   0.62230445    295.42785   -159.00495 
   62600   0.62184947    294.96908   -47.231598 
   62700   0.62237784    297.66783   -21.618609 
   62800   0.62348061    300.37061   -103.22469 
   62900   0.62517127    298.68275   -40.822649 
   63000   0.62689874    296.76058   -12.083063 
   63100   0.62777899     298.2617   -90.307127 
   63200   0.62765003    296.14043    76.560755 
   63300   0.62653575    297.47277   -169.89395 
   63400   0.62507924    299.12105   -26.472077 
   63500   0.62378637    303.66041    4.5206066 
   63600   0.62289303    302.18745   -117.49863 
   63700   0.62259023    296.68323   -141.15067 
   63800   0.62314296    298.50837    45.196761 
   63900   0.62451059    299.46365    22.733922 
   64000   0.62646496    298.44749    44.902501 
   64100   0.62757168    296.65083    98.628804 
   64200   0.62768056    297.44618   -42.750851 
   64300   0.62760529    297.75816   -76.153943 
   64400   0.62747452    298.57075    126.16592 
   64500   0.62688458    298.49878     57.13258 
   64600   0.62610349    297.76933   -140.97415 
   64700    0.6254359    298.77894   -28.214835 
   64800   0.62488455    297.71001    302.81114 
   64900   0.62427878    301.03427     49.36305 
   65000   0.62428253    298.54179   -234.49615 
   65100     0.624726    296.52739    18.759977 
   65200   0.62510162    296.35801    59.288604 
   65300   0.62546643    297.30046     194.6786 
   65400   0.62561438     301.4997   -143.34611 
   65500   0.62587866    298.74508    160.38503 
   65600   0.62573939    297.86358    355.30099 
   65700   0.62574991    299.66843    319.73733 
   65800   0.62557894    298.53933   -253.18933 
   65900   0.62641109     300.5127   -112.21701 
   66000   0.62729638    300.70683    155.94593 
   66100   0.62751913    298.35377    249.91884 
   66200   0.62703566    296.32951    111.49522 
   66300   0.62597734    299.04039   -272.14928 
   66400   0.62518975    296.57474   -173.09479 
   66500   0.62469855     298.6002   -73.684081 
   66600   0.62474179    295.59632   -197.12649 
   66700   0.62545443      297.224   -237.99074 
   66800   0.62634691    298.52918   -54.428215 
   66900   0.62707054    301.70553    200.02519 
   67000   0.62732598    300.93364    150.77916 
   67100   0.62697603    298.34449   -179.56888 
   67200   0.62591686    298.13638   -225.82495 
   67300   0.62494428    298.08686    56.855654 
   67400   0.62407105    299.53049    16.715205 
   67500    0.6240098    300.86194    58.504156 
   67600   0.62434774    296.30046   -201.76821 
   67700   0.62489436     297.7793    18.642278 
   67800   0.62513972    297.56116    99.196612 
   67900   0.62508391    299.20451   -47.060482 
   68000   0.62545108    299.51753    110.20492 
   68100   0.62578606    297.78617    37.888857 
   68200   0.62612515    298.12737     -32.0372 
   68300   0.62619457      299.164   -134.39356 
   68400   0.62616151    298.93078   -61.931002 
   68500   0.62596003    299.66399   -101.66644 
   68600   0.62616555    298.64707   -15.328237 
   68700   0.62656105    300.88477    131.10343 
   68800   0.62646116    297.38132   -102.16302 
   68900   0.62598271    295.38005   -119.01145 
   69000   0.62569755    299.10886   -16.549198 
   69100   0.62605579    299.34204   -124.16431 
   69200   0.62727627    298.47374   -20.042379 
   69300   0.62880243    297.32928   -35.431303 
   69400   0.62941835    299.71036   -225.81813 
   69500   0.63014675    296.77135   -136.18786 
   69600   0.63053365    296.89754     62.31426 
   69700   0.63023053    297.95518     131.2986 
   69800   0.62993606    300.13158   -58.145835 
   69900   0.62968193    297.44204    -71.55906 
   70000    0.6290204    296.97506    23.546256 
   70100   0.62827948    300.05105   -90.547075 
   70200   0.62798417    300.62751   -326.27576 
   70300   0.62847794    296.67119   -205.86954 
   70400     0.629249    297.21704    46.091771 
   70500    0.6302357    298.50925    36.925804 
   70600   0.63100075    299.40936    114.81527 
   70700    0.6306592    298.20535   -187.56642 
   70800   0.63049367    297.33207   -126.71584 
   70900   0.62978077    298.74355    52.851678 
   71000   0.62916649    297.18876    30.290256 
   71100   0.62892546    298.84263    35.067333 
   71200    0.6287094     301.0029    86.209122 
   71300   0.62840661    301.54202   -26.889895 
   71400   0.62735786    296.74904     -16.1604 
   71500   0.62600015    294.81483    28.132729 
   71600   0.62513971    296.40532    90.836608 
   71700   0.62492154    298.63581   -230.86417 
   71800   0.62524187    298.02029    68.344133 
   71900    0.6255854    297.44102    56.943044 
   72000   0.62559603    297.63281   -57.583521 
   72100   0.62512175    297.39873   -83.571332 
   72200   0.62444375    297.96386    62.769169 
   72300   0.62397203    294.97362    80.703432 
   72400   0.62366651     298.5195    205.29506 
   72500   0.62367084    298.75968     75.87395 
   72600   0.62395392    298.54785    -133.3541 
   72700   0.62448533    300.55429    61.748592 
   72800   0.62519356    297.25973    239.45531 
   72900   0.62624377    294.62409    158.22992 
   73000   0.62731185    298.47858   -8.2447791 
   73100    0.6282427    299.01282   -94.260259 
   73200   0.62889433    301.55623    34.210065 
   73300   0.62930381    297.37287    76.023632 
   73400   0.62984349    296.55246    -70.82139 
   73500   0.62995731    298.06153   -189.43357 
   73600   0.62993655    298.20525   -46.186807 
   73700   0.62996144    299.64672   -17.323045 
   73800   0.62976353    297.44387     -184.853 
   73900   0.62930477    296.25007    30.036228 
   74000   0.62881278    297.93299    76.229619 
   74100   0.62845967    298.57471    -52.66023 
   74200   0.62838983    299.04944   -66.572161 
   74300   0.62861905    297.66181   -47.577817 
   74400   0.62909151    295.38241   -23.496052 
   74500   0.62921834    301.23233   -136.11557 
   74600   0.62916384    298.58567    39.194072 
   74700   0.62835096    298.52278   -85.791165 
   74800   0.62735509    295.45859   -55.875729 
   74900   0.62638671    298.83041   -39.733377 
   75000   0.62576724    299.08868   -74.440276 
   75100   0.62604697    298.70935    40.520794 
   75200   0.62698513    297.06834   -58.508701 
   75300   0.62806423    298.14657    62.327965 
   75400   0.62897552    295.78274    106.28681 
   75500   0.62957078    296.32579   -255.89388 
   75600   0.63024596    296.16099     -220.451 
   75700   0.63024977    299.41739   -89.518297 
   75800   0.63004152    298.95598   -90.682299 
   75900   0.62993585    298.04446   -157.63268 
   76000   0.63004759     295.6407    -266.1268 
   76100   0.63041199    295.47923    -191.4569 
   76200   0.63041466    296.82725   -180.30873 
   76300   0.63060053    297.07597   -30.959784 
   76400   0.63063447    299.13523   -218.39659 
   76500    0.6311397     296.3563   -82.122951 
   76600   0.63132013    296.89731   -67.142099 
   76700    0.6316181    295.68504   -116.58584 
   76800   0.63193079    297.24995   -24.746832 
   76900   0.63191646    297.58698    75.634055 
   77000   0.63125838    299.71968   -119.50754 
   77100   0.63021819    297.31637     102.8529 
   77200   0.62845295    298.49479   -77.871303 
   77300   0.62701764    299.53309   -182.70749 
   77400   0.62606416    300.61764   -151.98831 
   77500   0.62608252     297.2007    86.990847 
   77600   0.62677391    294.57541   -10.946324 
   77700   0.62819149     297.3634    76.280539 
   77800   0.62942302    298.50408     34.33362 
   77900   0.63024014    299.28015   -73.615466 
   78000   0.63099443    296.06968   -53.989475 
   78100   0.63110668    297.07511    200.09311 
   78200   0.63041141    297.07227      191.308 
   78300   0.62909082    299.52109    99.490463 
   78400   0.62737751    299.30459    27.695939 
   78500   0.62549691    297.51005   -132.98547 
   78600   0.62448624    296.94534   -71.612184 
   78700   0.62423462    297.65895     47.87618 
   78800   0.62489383    297.03958   -102.85723 
   78900    0.6255059     298.7541   -87.342366 
   79000   0.62552712    300.83441   -48.621663 
   79100   0.62560812    299.84739   -190.38552 
   79200    0.6256195     299.6248   -153.80773 
   79300   0.62565873    297.17069   -67.301065 
   79400   0.62562618    296.32575    30.118114 
   79500   0.62556984    297.03392   -139.41446 
   79600   0.62647098    297.57149    103.69074 
   79700   0.62770868    297.30396   -122.11642 
   79800   0.62939394    297.55075   -50.778899 
   79900   0.63120504    298.00703    283.87987 
   80000   0.63186661    302.80843    42.327134 
   80100   0.63222503    300.14398    16.965992 
   80200   0.63147442    296.42293    86.768633 
   80300   0.62988091    296.80046   -137.95826 
   80400   0.62880939     298.3535    9.8451288 
   80500   0.62851277    300.15259    24.504498 
   80600   0.62884653    302.20986   -119.49889 
   80700   0.62963763    298.69343    104.82213 
   80800   0.63013087    297.99291    22.601082 
   80900   0.63061551    297.77978   -105.76297 
   81000   0.63066283    297.41316   -153.38965 
   81100   0.63113389    296.82458    171.77309 
   81200   0.63106883    300.13133   -9.1678118 
   81300   0.63146407    297.06057     70.77782 
   81400   0.63127419    300.02852   -139.22816 
   81500   0.63096769    297.73494    36.493381 
   81600   0.63063243    297.53959    180.28185 
   81700   0.62991126    296.18268   -81.101292 
   81800   0.62899717    298.26567   -20.663165 
   81900   0.62820942    299.35515    60.066857 
   82000   0.62853492    298.14486   -209.11849 
   82100   0.62944715     297.6739   -335.55766 
   82200   0.63134666    297.64564   -28.430181 
   82300   0.63353697     298.8613    16.609447 
   82400   0.63535043    296.18016    84.469831 
   82500   0.63623715    298.51884     113.4204 
   82600   0.63671955    299.25604   -3.0909819 
   82700   0.63689977    297.27246   -11.577888 
   82800   0.63649428    294.14627     201.9162 
   82900   0.63555007    296.47984     171.7078 
   83000   0.63423492    298.31186    198.91551 
   83100    0.6329053    298.33406    80.937202 
   83200    0.6317399    297.92551   -10.266755 
   83300   0.63110228    297.52226    77.988702 
   83400   0.63098319     295.1788   -26.513753 
   83500   0.63098113    295.51826   -11.428831 
   83600   0.63095846    297.24974    257.04104 
   83700   0.63046988    299.41389    83.069554 
   83800   0.62944848    299.14673   -143.39461 
   83900   0.62886559    296.26892   -66.852672 
   84000   0.62886633    296.65233    40.560749 
   84100   0.62930307    299.69879   -127.37125 
   84200   0.62997776    300.08289   -92.075023 
   84300   0.63011071    300.17346    47.020198 
   84400   0.63002615     297.3846    40.140341 
   84500   0.62936578     297.5044    22.547814 
   84600   0.62894011    299.24077    86.706879 
   84700   0.62891743    299.31036   -118.68504 
   84800   0.62829677    301.14206   -169.83611 
   84900   0.62746508    300.23081    168.40346 
   85000   0.62686657    298.91046    46.942408 
   85100   0.62674839    298.80718   -86.433755 
   85200   0.62736016    297.57249   -31.946853 
   85300   0.62816427    299.18077   -12.960835 
   85400   0.62884675    300.06887    45.586668 
   85500   0.62921746    299.16892    182.82924 
   85600   0.62937187    297.84307   -141.86759 
   85700   0.63010969    297.85446   -107.17396 
   85800   0.63103902     297.6535    122.48252 
   85900   0.63174703    300.18604    63.543115 
   86000   0.63181982    300.24655     22.74426 
   86100   0.63107648    297.47485    51.368572 
   86200   0.63030208    295.73264    9.2370157 
   86300   0.62953516    296.49151   -142.41006 
   86400   0.62910606    296.98841   -260.38347 
   86500   0.62915088    299.00934   -246.69756 
   86600   0.62973491    297.62306   -26.324409 
   86700   0.63062893    296.96459    46.137867 
   86800   0.63167522    297.72369   -91.452561 
   86900   0.63270872    296.18223   -108.27974 
   87000   0.63350583    300.25246   -63.353127 
   87100   0.63367638    300.12512   -135.49647 
   87200   0.63341078    297.65889    210.44839 
   87300   0.63314885    297.28773    183.30523 
   87400   0.63271996    296.89907   -93.390596 
   87500   0.63208593    298.59238    84.074862 
   87600   0.63123498    300.72462    180.63481 
   87700     0.629917    301.38592   -49.969605 
   87800   0.62949381    299.01246   -105.09951 
   87900   0.63006057    298.50112   -163.31795 
   88000   0.63091929    297.44339   -174.70573 
   88100   0.63202289    300.10481    142.41128 
   88200   0.63270425    300.39699    29.174746 
   88300   0.63326719    298.95193   -41.370392 
   88400   0.63341972    299.80155   -91.205049 
   88500   0.63299982    295.01941    54.314981 
   88600   0.63279625    293.92362    56.682465 
   88700   0.63270205    298.95808   -60.293257 
   88800   0.63289096     300.7715    51.322945 
   88900   0.63291932    298.91723    148.41596 
   89000   0.63260207    297.81006    148.80528 
   89100   0.63196973     296.5488   -40.328307 
   89200   0.63173368    294.50726   -112.74431 
   89300   0.63178922    296.77746    81.185305 
   89400    0.6323329    297.72614    126.35041 
   89500   0.63290879    298.06617    5.5419217 
   89600   0.63352262     299.1497    57.545652 
   89700    0.6341036    297.00432    88.676193 
   89800   0.63444725    296.55262    42.409155 
   89900   0.63456425    295.38234    106.63023 
   90000   0.63439915    299.10762    234.27037 
   90100   0.63384064    300.65598    28.964735 
   90200   0.63307444    298.35151    89.178278 
   90300   0.63206751    295.66283    146.34485 
   90400   0.63112014    296.32235   -28.071732 
   90500    0.6306373    299.49763   -16.827513 
   90600   0.63034024    298.25467    75.914756 
   90700   0.62997787    296.92346   -26.885568 
   90800   0.62964778    297.24929   -155.40057 
   90900   0.62972303    297.30981    -69.34954 
   91000   0.63017589    298.64999   -170.70967 
   91100   0.63154618    295.60892   -71.065691 
   91200   0.63265912    297.71012    37.037076 
   91300   0.63379513    299.57751   -80.685591 
   91400   0.63479461    299.09241    68.137172 
   91500   0.63513622    296.41928    282.63222 
   91600   0.63479839    295.55989   -46.680648 
   91700   0.63415326    296.62507   -251.29603 
   91800   0.63380853    295.88405   -92.664579 
   91900   0.63304266    299.16788    19.294451 
   92000   0.63229847    300.87475    27.207795 
   92100   0.63235974    296.73211   -4.1443987 
   92200    0.6326931    296.15771   -116.47472 
   92300   0.63274567    299.23068    41.874459 
   92400   0.63279779    298.22529    197.70147 
   92500   0.63256032    294.98473    62.114065 
   92600   0.63253618    295.35996    79.009585 
   92700     0.633364    297.06165      82.4635 
   92800   0.63409162    298.22873   -94.150401 
   92900   0.63510627    300.21615    284.78206 
   93000   0.63572248    299.62815    133.25431 
   93100   0.63610973    298.61289   -169.41101 
   93200   0.63611023    297.46917   -27.256669 
   93300   0.63587455    298.11112    130.65077 
   93400   0.63571218    297.82918   -181.75737 
   93500   0.63514544     299.6071   -107.55892 
   93600   0.63414083    300.02939    64.290448 
   93700    0.6328216     299.3416    97.106598 
   93800   0.63195816     297.4895    186.19465 
   93900   0.63171702    297.36951    55.098398 
   94000   0.63192149    298.63609   -79.395518 
   94100   0.63254486    299.04239   -6.1747746 
   94200   0.63357191    299.99846    244.36195 
   94300   0.63480844     298.8281    235.09249 
   94400   0.63614377    297.28457    52.513285 
   94500   0.63704679    295.37494    50.069705 
   94600   0.63761815     295.3707   -59.845168 
   94700   0.63804645     297.4007   -15.077374 
   94800   0.63824438    299.07843     30.79952 
   94900   0.63825275    296.63174   -26.286865 
   95000   0.63752494    299.29439   -193.94139 
   95100   0.63671955    298.01793   -200.05176 
   95200   0.63605947    297.07988      44.0166 
   95300   0.63508689    298.72795   -181.77408 
   95400   0.63501007    296.93416    0.3081784 
   95500   0.63516262    297.44233    163.98066 
   95600   0.63534578    298.43068   -46.590659 
   95700   0.63531333    299.00374   -93.044852 
   95800   0.63544516    298.12724    111.28036 
   95900   0.63567254    296.05979    62.269635 
   96000   0.63634854    297.18746   -207.88657 
   96100   0.63720976    299.21746    29.557043 
   96200   0.63753451    299.61453    21.555869 
   96300   0.63790733    295.73784    140.47512 
   96400   0.63735938    298.39862   -142.36019 
   96500   0.63655521    297.42186   -110.94467 
   96600   0.63612944    296.74557    217.04137 
   96700   0.63615019    294.29871    137.61489 
   96800   0.63658715     296.4814    5.3689051 
   96900   0.63702677    300.77456    49.956901 
   97000   0.63751534    299.13759    2.3395454 
   97100   0.63816665    296.65881   -4.3200278 
   97200   0.63901592    296.77192   -49.066313 
   97300   0.63983526    296.81863   -65.562382 
   97400   0.63994536    298.23515   -41.509352 
   97500   0.63978892    295.66305    349.62572 
   97600   0.63914342    299.45685    18.143305 
   97700   0.63875362    295.65845   -176.16292 
   97800   0.63802305    296.23836    116.18173 
   97900   0.63711627    297.04145    32.895154 
   98000   0.63651496    298.93557     76.78113 
   98100   0.63604126     298.2148    172.31549 
   98200   0.63576251    297.52584    9.7381783 
   98300   0.63574932    297.19988    56.126814 
   98400   0.63593912    295.92592    172.45569 
   98500   0.63610919    296.36358    23.939013 
   98600    0.6365033    301.39087   -38.156343 
   98700   0.63671342    297.66879    132.62002 
   98800   0.63697504    297.96327    56.639336 
   98900   0.63749209    297.36489   -156.03996 
   99000   0.63850235    296.22317   -58.991072 
   99100   0.63933486    300.72568   -44.190176 
   99200   0.63988212    301.40353    -80.05373 
   99300   0.64005218    300.28286     110.8574 
   99400    0.6388548    300.21272   -90.894134 
   99500   0.63744319    295.78583    55.009567 
   99600   0.63589268    296.80059    38.165995 
   99700   0.63500581    297.99019    -37.11348 
   99800     0.634904    297.47114    164.08214 
   99900   0.63486693    297.70884    165.75385 
  100000   0.63493092    298.87516    20.496676 
  100100   0.63514514    298.21653   -64.401888 
  100200   0.63622175    297.06475   -74.058007 
  100300   0.63769277    297.69863   -74.718559 
  100400   0.63877647    299.22622    212.33167 
  100500   0.63884863    298.59985    377.18569 
  100600   0.63768872    297.44673    45.593371 
  100700   0.63617331    297.79169   -167.95632 
  100800   0.63488854    296.08324   -70.439414 
  100900   0.63427958    298.06554    159.98489 
  101000   0.63429599    297.70603   -3.5160948 
  101100    0.6348554    298.85212   -49.623931 
  101200   0.63526019    298.77023    32.683182 
  101300    0.6351499    298.41195   -82.010792 
  101400   0.63489522    298.44527    128.08144 
  101500   0.63523262    296.06118   -3.6584188 
  101600   0.63551846    297.48326   -229.99166 
  101700   0.63546465    298.90557    41.151182 
  101800   0.63514163    298.79345   -77.254688 
  101900   0.63510451    297.91517   -184.90491 
  102000    0.6357356    297.19209   -40.697605 
  102100   0.63691013    298.50723    92.177692 
  102200   0.63821756    298.61075    195.79694 
  102300   0.63844173    298.75774   -3.8207125 
  102400   0.63782294    296.95788   -155.11685 
  102500   0.63721928    296.79774   -233.73785 
  102600    0.6373659    298.38295    25.518695 
  102700   0.63740634    298.26473    140.67692 
  102800    0.6371726    300.05235   -262.51151 
  102900   0.63709421    298.08372    49.256347 
  103000    0.6373541    296.21643   -11.862947 
  103100    0.6381026    296.08674   -247.16511 
  103200   0.63913441    295.66863    3.4645604 
  103300    0.6401166    295.15964    70.705589 
  103400   0.64061325     298.0499    303.63696 
  103500   0.64003701    300.46514    104.47767 
  103600   0.63908899     298.8643   -311.31844 
  103700   0.63806398    297.14628   -200.54446 
  103800   0.63698892    296.88015    139.80783 
  103900   0.63570871    300.57832    110.34502 
  104000   0.63449449    298.94394   -25.389375 
  104100   0.63337199    297.29588      55.5673 
  104200   0.63273949    295.45094   -60.834469 
  104300   0.63276817    297.25484   -139.84234 
  104400   0.63337187    300.35508     359.5931 
  104500   0.63478412    298.16405   -66.102738 
  104600   0.63652024    296.96666   -102.54553 
  104700   0.63753625    300.09692    66.902808 
  104800   0.63838295    298.16728    249.21896 
  104900   0.63887276    297.37195   -52.153978 
  105000   0.63930349    298.71069   -79.829979 
  105100   0.63944639    297.96338    180.18002 
  105200   0.63871038    297.84777    14.051543 
  105300   0.63785812    298.61331   -61.687056 
  105400   0.63706044    298.80624    -98.35148 
  105500   0.63668484    297.50173    15.646103 
  105600   0.63699234    295.78466    321.35513 
  105700   0.63752344     299.8392   -66.041314 
  105800   0.63845122    301.26599   -14.391622 
  105900   0.63895851    299.18067    232.93067 
  106000   0.63884648    297.40977   -27.593752 
  106100   0.63828775    296.49479   -155.65606 
  106200   0.63793019    296.18666   -31.723564 
  106300   0.63763652    299.12394    250.32578 
  106400   0.63748192       296.19    59.602595 
  106500   0.63733438    296.56114    15.196237 
  106600   0.63654166    297.54435   -161.43182 
  106700   0.63649371     295.8866    139.57909 
  106800   0.63691592    294.49641    130.75357 
  106900   0.63746066    298.04092   -25.655108 
  107000   0.63814919    298.66753    -89.69461 
  107100   0.63869292    298.06478   -26.515139 
  107200   0.63919583    298.18931   -77.429227 
  107300   0.63929587    296.41083   -1.9494386 
  107400   0.63926414    298.79849   -71.832794 
  107500   0.63938435    300.63948    18.236673 
  107600   0.63939478     300.0708    136.29109 
  107700   0.63871983    299.50574    110.72464 
  107800   0.63763116    297.37378   -5.9873709 
  107900    0.6366717    299.50935   -122.53462 
  108000   0.63653263    295.98584   -141.45292 
  108100   0.63679288    297.41807   -106.10488 
  108200    0.6372655    299.19504    -103.0918 
  108300   0.63770245    297.70339   -27.666804 
  108400    0.6378356    296.64769    -38.45273 
  108500   0.63785338    295.07708   -104.67337 
  108600   0.63762119    300.68866   -62.575636 
  108700   0.63773999     299.3037    11.588132 
  108800   0.63819441    296.57593    -96.36619 
  108900   0.63871049    295.58493   -50.331293 
  109000    0.6392153    295.83236    17.834224 
  109100   0.63996026    297.57037    134.74022 
  109200   0.64027286    298.66786    47.043103 
  109300   0.64031956    300.22768    6.7415881 
  109400   0.63977324    298.53659   -179.68723 
  109500   0.63995788    295.75132    39.347027 
  109600   0.64016748     298.9127    54.415706 
  109700   0.64044808    298.61038   -132.05567 
  109800   0.64063242     299.4552   -127.33213 
  109900   0.64044665    301.09827    155.41758 
  110000   0.64014938    295.73614    21.513274 
  110100   0.64005226    297.00738   -139.54182 
  110200   0.64071777    297.20847   -108.62058 
  110300   0.64141905    298.65898   -185.76407 
  110400    0.6415484    300.88215   -88.704422 
  110500   0.64183784    298.00835    130.05124 
  110600   0.64156463    297.10538   -80.870163 
  110700   0.64078972    298.83994   -36.790044 
  110800    0.6401841    300.49604    218.64005 
  110900   0.63999076    298.64652    117.11112 
  111000     0.639479    297.37428   -255.69603 
  111100   0.63927451    297.23597    121.55013 
  111200   0.63889529    296.09516    175.65838 
  111300   0.63874801    297.97276    133.53113 
  111400   0.63880864    298.13929    234.94763 
  111500   0.63871348    298.91424    85.425291 
  111600   0.63896757    298.48414   -8.8006824 
  111700   0.63925342    298.89143    108.70016 
  111800   0.63898613     297.9034    368.95456 
  111900   0.63807011    302.21693    150.76987 
  112000   0.63714942    299.83334    15.334061 
  112100   0.63682795    298.81244   -84.382356 
  112200   0.63696906     298.6798    10.815298 
  112300   0.63762398     298.6112    47.785498 
  112400   0.63833843    301.29422   -15.538469 
  112500   0.63868815    300.06742    108.94815 
  112600   0.63858989    298.28791   -29.885497 
  112700   0.63929162    296.52245   -82.167115 
  112800   0.64041436    298.50962   -152.70704 
  112900   0.64189537    299.55652    45.646261 
  113000   0.64288276    300.55175    104.56926 
  113100   0.64336471    298.29583   -87.604339 
  113200   0.64374482     296.5853   -42.294098 
  113300   0.64339365    296.88029    51.048617 
  113400   0.64252961    298.10606    184.78386 
  113500   0.64096375    299.00477   -31.155048 
  113600   0.63926147    299.44773   -168.45991 
  113700   0.63892913    299.94243    113.38646 
  113800   0.63931485    298.92191    94.320811 
  113900   0.64010376    295.42337   -43.306961 
  114000   0.64095458    297.94237   -185.98353 
  114100    0.6413983    300.46957   -119.93351 
  114200   0.64123436    301.77678    113.01053 
  114300   0.64091091    297.73641    3.4521143 
  114400   0.64110043    296.19575   -59.664726 
  114500   0.64119504    295.66839   -72.587464 
  114600   0.64025532    298.29861   -162.70864 
  114700   0.63909136    299.17133    3.2598881 
  114800   0.63751926    298.24652   -340.29252 
  114900   0.63667658      296.917   -310.80806 
  115000   0.63707851    296.78661     -67.2959 
  115100   0.63821164    296.19479   -153.85079 
  115200   0.63975483    296.64672   -277.12569 
  115300   0.64092437    300.29028     26.41439 
  115400   0.64139483    301.44884    60.450715 
  115500   0.64102037    299.23747    78.190596 
  115600   0.64008421    299.09232    207.06078 
  115700   0.63943155    298.84954   -36.186887 
  115800   0.63931891    300.08007   -297.31579 
  115900   0.63985044    300.72598   -108.66664 
  116000   0.64092308    298.93738    195.53305 
  116100   0.64196493    297.67462    19.231736 
  116200   0.64312844    297.08548    141.88694 
  116300   0.64401038    297.75911    1.7385243 
  116400   0.64393145    300.09859   -104.72786 
  116500   0.64337735      300.454    42.174978 
  116600    0.6425719    298.85846   -7.9460518 
  116700   0.64175338    296.44954    -60.14474 
  116800   0.64150757    298.49383   -15.050614 
  116900   0.64187236      297.219   -41.278313 
  117000   0.64241512     299.6799    6.4743687 
  117100   0.64285806    296.33597   -53.530364 
  117200    0.6428654     296.6616    -130.7116 
  117300   0.64249004    295.51753    15.464098 
  117400   0.64209065    296.92231    129.74207 
  117500   0.64152492    299.78303     13.04631 
  117600   0.64080466    298.02895    -159.8914 
  117700   0.64008634    297.46939   -214.68211 
  117800   0.63958853    298.75573   -20.726226 
  117900   0.63927674    298.34337    81.086902 
  118000   0.63913134    298.34399   -35.932374 
  118100   0.63899796    298.03043   -75.431021 
  118200   0.63882538    296.87361     94.96226 
  118300   0.63904729    295.87033   -85.983016 
  118400   0.63977796     298.9583   -27.415158 
  118500   0.64076719    298.68884    180.92089 
  118600    0.6413908    299.42498    183.48889 
  118700   0.64153097    297.88223    31.956731 
  118800   0.64170787    295.90285    213.22056 
  118900   0.64132066    298.02575   -176.74218 
  119000   0.64110374    298.99041   -10.523796 
  119100   0.64070417    298.64316     242.4628 
  119200   0.64003323    299.44071   -118.18535 
  119300    0.6395046    298.55085   -46.298335 
  119400   0.63935183    297.24973   -56.337289 
  119500   0.63956208    298.62702   -10.952442 
  119600   0.63993245    299.36458   -5.3516407 
  119700   0.64071544    297.96149    285.88183 
  119800   0.64092521    297.15457    21.033066 
  119900    0.6402285    295.67258   -80.583001 
  120000   0.63968859      295.116    25.449389 
  120100   0.63988183    295.76833    114.07625 
  120200   0.64036669     299.6949    75.854585 
  120300    0.6410119      300.021   -119.73737 
  120400   0.64112603    296.15756   -83.593357 
  120500   0.64065811     297.2091     10.45113 
  120600   0.63978297    296.83325     284.8418 
  120700   0.63870551    300.13965   -164.73205 
  120800   0.63797363    299.47486    -207.0145 
  120900   0.63803665    297.06226    36.868947 
  121000   0.63823286    297.06206    69.035054 
  121100   0.63844402    295.93807    12.580264 
  121200   0.63834596    298.20269   -161.50444 
  121300   0.63812398    297.94835    35.328075 
  121400   0.63816323     297.0887    43.812928 
  121500   0.63834216    298.69692   -213.56772 
  121600   0.63860856    297.92404    -118.3515 
  121700   0.63892934    295.45998    94.441171 
  121800   0.63896943    298.19859   -75.627902 
  121900   0.63861296    296.72183   -138.85076 
  122000   0.63787365     297.1512   -153.69186 
  122100   0.63744791    295.78909   -196.16159 
  122200   0.63817384    296.66911   -93.670597 
  122300   0.64010328    298.41471    82.646531 
  122400   0.64169317    298.73095    44.034025 
  122500   0.64249894    298.83296   -43.420272 
  122600   0.64284397    297.86354    28.515517 
  122700   0.64240898    297.39922    64.319566 
  122800   0.64146494    298.44339    102.96308 
  122900   0.64073819    296.61745    2.6832249 
  123000   0.63971018    296.70172   -136.57696 
  123100   0.63853396    298.60519   -64.398345 
  123200   0.63750981    297.96743   -62.718463 
  123300   0.63683536    298.26211    145.90201 
  123400   0.63650027    294.56575   -107.86658 
  123500   0.63689727    295.24135    65.783801 
  123600   0.63703581    300.68765    1.1144759 
  123700   0.63763892     298.7935   -117.27856 
  123800   0.63807815    298.63903   -56.991997 
  123900   0.63794839    297.32223    -15.37067 
  124000   0.63792949     297.1006    47.312666 
  124100   0.63802304    296.92461   -18.208281 
  124200   0.63827497    297.45472    84.154743 
  124300   0.63892729    298.93536    121.34383 
  124400   0.63923524    300.34438    26.393467 
  124500   0.63951505     299.3509    234.33764 
  124600    0.6399727    295.14669   -49.674307 
  124700   0.64089607     296.2897   -57.540469 
  124800   0.64217273    300.16619    168.11513 
  124900   0.64328658    299.20744    47.231765 
  125000   0.64397921    296.41016   -200.18129 
  125100   0.64387891    297.41162   -20.932338 
  125200   0.64315612    298.96614    131.03506 
  125300   0.64256688    297.18475    10.107374 
  125400   0.64236543    298.79134    62.668543 
  125500   0.64228697    299.26521   -107.82204 
  125600   0.64233702    295.81049    1.3099323 
  125700   0.64242495    297.53732    160.55692 
  125800   0.64193298    297.86595    87.931795 
  125900   0.64045296    301.12724   -3.1849699 
  126000   0.63888551    298.93362    32.581416 
  126100   0.63817278    295.81476   -96.291838 
  126200   0.63847848    296.05796    12.331633 
  126300   0.63911934    299.51191    255.05767 
  126400   0.64014362     298.2578   -91.855797 
  126500   0.64170056    295.49879    147.71392 
  126600   0.64285285    295.67899    411.25455 
  126700   0.64337384    297.50881    87.015429 
  126800   0.64338264    296.83565   -214.05241 
  126900    0.6432377    298.85133    169.44196 
  127000   0.64280929    300.48134     132.4127 
  127100   0.64253331    296.88022    134.01066 
  127200   0.64188785    295.93174   -97.484477 
  127300   0.64161907    298.74275   -93.535631 
  127400   0.64173053     302.6957    179.43341 
  127500   0.64160624    299.83577    23.724819 
  127600   0.64092759    299.59575   -21.795445 
  127700   0.64047751    298.19425    154.49065 
  127800   0.64063479    297.89742    305.14448 
  127900   0.64120462    297.58989    85.667658 
  128000   0.64111906    300.65381    33.580786 
  128100   0.64036382    298.99874   -127.21713 
  128200   0.63945785    300.92059    -178.1274 
  128300   0.63929742    297.66122    151.20072 
  128400   0.63963663    297.85559   -5.0585814 
  128500   0.64075938    298.26001   -73.025569 
  128600   0.64188512    298.38668   -84.799201 
  128700   0.64306757    297.09955   -52.985038 
  128800   0.64408788    295.25989    3.2719824 
  128900   0.64419549    297.36722    36.885023 
  129000    0.6439296    301.29646    75.182664 
  129100   0.64358611    300.41387    14.118281 
  129200   0.64301112    298.80912   -105.00435 
  129300   0.64298424    297.92516    8.5577695 
  129400   0.64309227    295.53914   -212.40059 
  129500   0.64334144    299.54611    219.09132 
  129600    0.6433888    301.25889    212.61523 
  129700   0.64317444    296.31599   -78.790839 
  129800   0.64278269    295.58938   -163.80981 
  129900   0.64283338    295.14342    8.5664755 
  130000   0.64340949    299.43994   -27.027969 
  130100   0.64454121    300.74958    10.592344 
  130200   0.64529718    298.01602   -154.51264 
  130300   0.64538824    297.36347    118.05336 
  130400   0.64542102     298.0286    156.60609 
  130500   0.64524717    296.17443   -56.466322 
  130600   0.64470417    300.59577   -403.73681 
  130700   0.64456316    297.99716    131.88453 
  130800   0.64374953    298.18545    152.04444 
  130900   0.64285464    298.18193    -351.8912 
  131000   0.64227296    298.85547   -228.98037 
  131100   0.64225811    300.03963   -87.056025 
  131200   0.64227845    298.24662   -60.589229 
  131300   0.64189103     299.2847    164.87445 
  131400   0.64132416    297.11784     65.09924 
  131500   0.64138275    298.88177   -172.71279 
  131600   0.64185372    299.85431    49.319267 
  131700   0.64290187    296.62398     135.7715 
  131800    0.6435535    298.17869   -154.25737 
  131900   0.64392971     298.5177   -108.25154 
  132000   0.64416238    299.81799    131.50102 
  132100   0.64401752    298.22477    139.68364 
  132200   0.64359382    297.32426     75.23945 
  132300   0.64287958    295.71365    -23.12238 
  132400   0.64254492    297.72351   -184.69804 
  132500   0.64338439    299.64492   -117.11334 
  132600   0.64440697    300.64261   -87.917437 
  132700   0.64541289    299.64146    146.15143 
  132800   0.64602161     298.3636    -94.08396 
  132900   0.64647959     296.7003   -84.473782 
  133000   0.64601753    296.61165    136.63319 
  133100   0.64449309    298.37622    218.34839 
  133200   0.64287705    298.12872   -171.77526 
  133300   0.64193621    297.61162    -168.4915 
  133400   0.64191754    298.32457    38.572613 
  133500   0.64255698    298.41737    222.21427 
  133600   0.64297204    301.18397    35.233187 
  133700   0.64364702    300.17401   -140.59007 
  133800   0.64401147    299.14309   -99.991606 
  133900   0.64401012    297.57695    313.22877 
  134000   0.64344908    297.78666    94.687228 
  134100   0.64278558    298.04923   -85.032392 
  134200   0.64219265    297.90714     6.150938 
  134300   0.64139144    298.60103    117.62488 
  134400   0.64046416    299.54308    194.52375 
  134500   0.64027796    296.65316    -3.508826 
  134600   0.64105202    296.19786   -73.795066 
  134700   0.64208837    299.16351   -182.47111 
  134800   0.64336263    297.38809    68.544533 
  134900    0.6435584    299.18129    150.23326 
  135000    0.6434316    300.25049    156.65539 
  135100   0.64282407     298.7559   -44.455732 
  135200   0.64244872    296.33842   -14.158861 
  135300   0.64246804    297.72312    64.133697 
  135400   0.64282597    298.94897    35.006032 
  135500    0.6428851    297.54172   -271.82963 
  135600    0.6428493    298.00111   -202.15775 
  135700   0.64314683    300.18214    19.461519 
  135800   0.64367975    298.38704    201.28003 
  135900   0.64441275     297.3067   -188.99447 
  136000   0.64535991    295.04933    51.933215 
  136100   0.64537152    297.52791    87.347849 
  136200   0.64489079    301.27054   -21.422809 
  136300   0.64463391    298.75732    17.946167 
  136400   0.64463429    295.00124   -28.710279 
  136500   0.64453389    296.46522    61.375863 
  136600   0.64420801    299.94342    193.67662 
  136700   0.64432647    298.93182    27.231673 
  136800     0.644556     295.2886   -210.46794 
  136900   0.64500418    295.21065    3.3107232 
  137000   0.64593901    297.32509   -32.147365 
  137100   0.64654793    297.89319   -111.89037 
  137200   0.64636259    299.72546    105.85609 
  137300   0.64585401    296.47724    90.484142 
  137400   0.64480926    296.83725   -226.42074 
  137500   0.64362159    299.00953     122.7489 
  137600   0.64271257    299.66487    8.7775121 
  137700   0.64257616     297.5587   -8.0657105 
  137800   0.64286046    298.07586      50.8768 
  137900   0.64362098    296.26985   -29.504282 
  138000   0.64468981    298.69592    106.07727 
  138100   0.64586907    298.13228    147.81971 
  138200   0.64646304     296.7536   -46.836438 
  138300   0.64659313    295.45213    22.324405 
  138400   0.64605327    297.77092    279.46024 
  138500   0.64504402    299.52171   -157.75396 
  138600    0.6444659    298.76499   -412.92679 
  138700   0.64462438    295.22863    52.583989 
  138800   0.64490314    297.17316    153.02619 
  138900   0.64522894    298.92991    14.141096 
  139000   0.64547929    297.81252   -27.338657 
  139100    0.6453295     299.5907   -141.00896 
  139200   0.64517324    298.06946    128.36228 
  139300   0.64493976    299.69334    248.82151 
  139400   0.64474205    298.86696    -222.3427 
  139500    0.6448553    296.08003   -302.84993 
  139600   0.64552165    299.54973    13.888599 
  139700   0.64635497    299.87012    20.755849 
  139800    0.6465579    299.03182    -143.1783 
  139900   0.64640714    297.36171   -74.441262 
  140000   0.64564762     297.0528   -331.77627 
  140100   0.64504964    295.75097    48.020887 
  140200   0.64442098     300.4798    211.81946 
  140300   0.64422136    298.41799   -19.670759 
  140400   0.64397977     294.5921   -129.18598 
  140500   0.64358052    294.82583   -146.02324 
  140600   0.64449687    296.74158    176.45497 
  140700   0.64643336    298.42127    273.96165 
  140800   0.64832944    300.60904   -16.163781 
  140900    0.6487293     298.8977   -179.89376 
  141000   0.64833302    297.17811    35.191598 
  141100   0.64784415    295.28822    105.59361 
  141200   0.64732208     296.0568    19.200958 
  141300   0.64653819    298.25068   -103.13198 
  141400   0.64550361    298.29849    68.616893 
  141500   0.64413263    298.69621    71.421926 
  141600   0.64334532    298.18981   -135.68641 
  141700   0.64334719    297.25327   -107.07385 
  141800   0.64426044      298.464   -20.751908 
  141900   0.64570498    302.46271    103.86229 
  142000    0.6469063    299.80779    13.601643 
  142100   0.64760698    298.67354    58.640133 
  142200   0.64754515    296.59133   -192.00796 
  142300   0.64685446    299.26737   -94.226253 
  142400   0.64623914    297.25949     346.4708 
  142500   0.64534304     296.5857     35.90045 
  142600   0.64429638    298.78588   -281.75863 
  142700   0.64354015    299.22867   -109.08311 
  142800   0.64266548    299.14575   -45.517407 
  142900   0.64212788    298.18641    36.957751 
  143000   0.64256861    297.34654    29.681104 
  143100   0.64396988    296.95985   -68.552411 
  143200    0.6455574    299.15551   -75.884126 
  143300   0.64668172    299.71505    207.01963 
  143400   0.64745899    297.37591    101.68207 
  143500   0.64784351     295.7964   -188.37928 
  143600   0.64793294    297.88375    68.363527 
  143700   0.64784717    298.33371    137.62575 
  143800   0.64744954    299.85078   0.75902016 
  143900   0.64672291    296.82012   -55.292394 
  144000   0.64563146    295.82686   -224.38803 
  144100   0.64522291    295.49659   -214.84668 
  144200   0.64571235    296.80192    31.869486 
  144300   0.64663146    297.46112    57.957661 
  144400   0.64732435    297.15924   -183.31738 
  144500   0.64777455    299.09811    154.15159 
  144600   0.64761382    297.65262    74.080801 
  144700   0.64692591    297.96546    12.917963 
  144800   0.64630346    296.90494    89.019639 
  144900   0.64657823     296.6516   -53.737425 
  145000   0.64703959    299.92213   -9.0899594 
  145100   0.64738705    299.33098    195.44906 
  145200   0.64774139    297.07269    42.511303 
  145300   0.64799564    295.72059   -143.93125 
  145400   0.64789225     299.0382   -191.45657 
  145500   0.64819882    296.80704    29.397227 
  145600   0.64863595    296.62672    113.13271 
  145700   0.64876048    298.77977    143.97533 
  145800   0.64841436    299.30908   -66.784653 
  145900   0.64797863    296.69762    205.25944 
  146000   0.64745069    295.25362    301.75168 
  146100   0.64675142    296.62592   -23.446932 
  146200   0.64620105    299.32572   -259.23542 
  146300   0.64648975    297.60486    341.75701 
  146400   0.64663575    299.00096    130.71373 
  146500   0.64669299    296.44835   -35.206279 
  146600    0.6465079    297.95984    166.69471 
  146700   0.64579742    299.09239   -126.92058 
  146800   0.64525414    300.01292    -155.8444 
  146900   0.64504611    297.94401    -73.07948 
  147000   0.64530346    296.50757     97.91428 
  147100   0.64552083    299.40711   -162.41215 
  147200   0.64516627    300.48009    66.347304 
  147300   0.64450324    297.51603    362.26937 
  147400   0.64340687    296.57618    21.919857 
  147500   0.64253043     296.4994   -30.353048 
  147600   0.64265924     299.2298   -30.532629 
  147700   0.64370616    300.66702   -83.213761 
  147800   0.64562913    297.99225    171.71689 
  147900   0.64688897    296.82148   -26.965762 
  148000   0.64755113    297.85227   -18.994475 
  148100   0.64743796    297.69389    239.25113 
  148200   0.64692663      298.294    132.96869 
  148300   0.64621522    300.86218   -69.004105 
  148400   0.64516402    301.68128    120.25423 
  148500   0.64410351    298.13253    26.434803 
  148600   0.64353698    297.15719   -202.12896 
  148700   0.64386264     298.7618    75.613273 
  148800    0.6445938    297.56161    99.312956 
  148900   0.64502227    299.04855    82.651659 
  149000   0.64479718    300.83648    264.87038 
  149100   0.64465184    297.07423   -233.09456 
  149200   0.64466654    297.31031    -216.8614 
  149300   0.64465585    298.68668    72.484853 
  149400   0.64449464    298.74471    137.23961 
  149500   0.64408091    299.87179   -203.98085 
  149600   0.64407766      299.823   -16.875415 
  149700   0.64547629    295.59851    144.84483 
  149800   0.64655071    298.96382   -94.818457 
  149900   0.64730874    299.03306    -2.226315 
  150000   0.64783416    299.76196   -6.5356546 
  150100   0.64791968    297.87827      48.2139 
[...]
  261800   0.65878915    297.18823    64.679908 
  261900   0.65905133    296.60685   -142.86331 
  262000   0.65869956    298.83951   -253.71165 
  262100   0.65830446    296.39919    313.02605 
  262200   0.65820307    297.13821    428.18208 
  262300   0.65870098    297.62229   -236.22874 
  262400    0.6596524    297.41489   -359.25892 
  262500   0.66093093    297.88094    172.64122 
  262600   0.66199191    297.50267   -30.444059 
  262700    0.6621155    297.04854   -157.24541 
  262800   0.66070868    298.63908   -54.137432 
  262900   0.65901119    298.92823   -56.611391 
  263000   0.65805856    296.20725    128.13803 
  263100   0.65778038    297.07497   -26.064457 
  263200   0.65879854    299.95274   -177.05337 
  263300    0.6607316    298.35092    34.590784 
  263400   0.66226486    299.82509    292.59957 
  263500   0.66286399    297.11846    21.607788 
  263600   0.66299746    296.75036   -91.001071 
  263700   0.66298246    295.58118    85.612732 
  263800   0.66282784    295.85614    195.21285 
  263900   0.66258603    297.73613    271.45273 
  264000   0.66187692    298.68696   -193.32559 
  264100   0.66119167    296.74548   -267.84973 
  264200   0.65972888    297.64391   -70.677192 
  264300   0.65884551    296.69373    183.67987 
  264400   0.65851307    300.19187   -15.673763 
  264500   0.65909382    299.77392    -202.8577 
  264600   0.65935767    299.01067    23.198115 
  264700   0.65910053     300.0852    147.60072 
  264800   0.65850565    297.60845   -27.262394 
  264900   0.65800718    296.80062    75.980677 
  265000   0.65759215    297.11255   -184.60764 
  265100   0.65781624    298.41791    109.70545 
  265200   0.65778638    297.72366    190.31204 
  265300    0.6577475    297.00701    86.974881 
  265400   0.65786967    296.92333   -286.45531 
  265500    0.6584631    298.16668   -14.232541 
  265600   0.65958199    296.00969    86.388641 
  265700   0.66088089    296.79048    53.221211 
  265800   0.66191355    296.54479   -15.723064 
  265900   0.66238971    297.05101   -41.175528 
  266000   0.66200751    299.40597    26.414353 
  266100   0.66133253    296.05469     93.43957 
  266200   0.66050167    296.18693   -65.201264 
  266300    0.6594513    298.82774   -186.42271 
  266400   0.65861908    299.85666    203.61826 
  266500   0.65780177    297.58615    90.039953 
  266600   0.65704838    295.41076   -139.64218 
  266700    0.6572474    298.75663   -162.96938 
  266800   0.65768162    300.71258    32.724248 
  266900   0.65828944    299.78817    12.299353 
  267000    0.6591777     297.2929    393.50399 
  267100   0.65966763    296.93704    3.4726966 
  267200   0.66004339    296.30859   -79.031555 
  267300   0.66016713    298.47812    64.518123 
  267400   0.66054097    299.08019    164.63812 
  267500   0.66087436    297.45389    28.978315 
  267600   0.66057097    295.90364    10.843297 
  267700   0.66026433    297.42298   -142.41034 
  267800   0.66060844    298.66944   -21.605784 
  267900   0.66107245    298.56013    28.676926 
  268000   0.66116495    298.47836   -183.73151 
  268100    0.6606977    297.56457   -167.12409 
  268200   0.65985637    297.33317   -15.547373 
  268300   0.65933061    298.20509    197.86344 
  268400   0.65869552    298.78829    33.779349 
  268500   0.65783942    299.71389   -133.47013 
  268600   0.65707768    299.50634   -166.20403 
  268700   0.65657089    297.40791   -27.905893 
  268800   0.65625979    298.01504    133.44584 
  268900   0.65643902    298.07071    9.2736517 
  269000   0.65661025    297.37003   -240.45404 
  269100   0.65677795    297.52302    73.658325 
  269200   0.65680928    296.36942     319.6216 
  269300   0.65659217    296.56998   -98.277432 
  269400   0.65656851    297.84138   -397.76408 
  269500    0.6573726    298.08481   -138.49646 
  269600   0.65858428    298.91296    302.37164 
  269700   0.65926862    295.76112   -10.910366 
  269800   0.66034678    296.84988    76.571757 
  269900   0.66120521    297.51341   -179.52571 
  270000    0.6618314    298.53722    32.439796 
  270100   0.66199036    300.35506    224.60193 
  270200   0.66174671    297.56154    -2.726411 
  270300   0.66086056    294.83254   -228.34664 
  270400   0.66035853    296.16858   -117.38488 
  270500   0.66011063    296.84947    107.96539 
  270600   0.65987674    298.01082    289.87931 
  270700   0.65931315    300.16123    18.836992 
  270800   0.65835357    298.93088   -301.61912 
  270900   0.65778938    295.95768   -37.918229 
  271000   0.65773084    296.95218    272.66953 
  271100   0.65795223     298.0065   -17.116517 
  271200   0.65873518    297.74198   -79.029767 
  271300    0.6593238     298.5739    34.611659 
  271400    0.6601436     296.6749    210.86156 
  271500   0.66095724    294.66998    27.475749 
  271600   0.66204667     296.2801   -139.46665 
  271700   0.66223059    298.00387   -129.69209 
  271800   0.66073964    299.50635    238.68729 
  271900   0.65849994     299.2046    260.70029 
  272000   0.65640728    297.87793   -90.196666 
  272100   0.65542624    296.41502   -384.57935 
  272200   0.65544479    299.30434   -6.1017807 
  272300   0.65618272    299.09861    396.69942 
  272400   0.65713062       298.82     148.6551 
  272500   0.65850611      297.383   -220.33765 
  272600   0.65977998    297.86602    116.22074 
  272700   0.65981087    298.18495    232.07209 
  272800   0.65877718    300.01213    234.38813 
  272900   0.65757108    300.96521    -201.1897 
  273000   0.65697336    297.17797   -322.13052 
  273100   0.65716223     296.3907    88.790339 
  273200   0.65757518    299.18688     230.1321 
  273300   0.65835139    299.07853   -36.903802 
  273400   0.65888094    298.92508   -65.548383 
  273500   0.65905314    297.60081    154.19069 
  273600   0.65928708    296.44033    131.27404 
  273700   0.65963676    297.46804    107.11833 
  273800   0.66021845    298.53104   -67.297019 
  273900   0.66008023    299.43936    -28.31264 
  274000   0.65962758    298.61444    103.56646 
  274100   0.65980837    298.42352    24.089255 
  274200   0.66034524    298.03065   -285.37974 
  274300   0.66162657    296.59255   -78.877568 
  274400   0.66288709    297.88035   -130.89543 
  274500   0.66347507    297.76261     243.5816 
  274600   0.66312317    297.61895    115.53228 
  274700   0.66197656    297.96779   -235.21253 
  274800   0.66121211    297.87056   -166.65589 
  274900   0.66141391    294.15235    388.77437 
  275000    0.6615271    296.46526   -59.488311 
  275100   0.66129057    297.94742    -116.4091 
  275200   0.66042133    300.33461    159.13939 
  275300   0.65971993     296.5611   -73.416451 
  275400   0.65959177    294.96744   -153.00299 
  275500   0.65964888     297.3551   -39.380301 
  275600   0.66028031    300.14959    4.3036215 
  275700   0.66057876    300.51905   -21.829929 
  275800   0.66089181    300.59372    53.932587 
  275900   0.66097934    297.51278     87.12208 
  276000   0.66083708    296.32519   -241.47154 
  276100   0.66099551    297.00035   -75.994198 
  276200   0.66098624    300.22826    -119.3422 
  276300   0.66096789    299.31264    63.145368 
  276400   0.66031621    295.91039    128.60241 
  276500   0.65908792    296.61523   -55.151149 
  276600   0.65742617    298.24698   -237.66318 
  276700   0.65627617    298.38268   -27.088511 
  276800   0.65618785    299.13346    -192.3595 
  276900   0.65627365    299.25736   -220.47233 
  277000   0.65685484    301.17392   -60.284895 
  277100   0.65751155    299.73869   -61.001857 
  277200   0.65820276    297.09752   -48.527388 
  277300   0.65956029    295.04099    86.928792 
  277400   0.66055468    297.87958   -189.40244 
  277500    0.6608657    299.61673   -356.36597 
  277600   0.66078331    299.49676    117.05365 
  277700   0.66005133     297.4859    140.30936 
  277800   0.65919317    295.04468   -209.93716 
  277900   0.65855723    296.93531   -56.118242 
  278000     0.657799    297.92404    83.530973 
  278100   0.65713877    298.74145    55.156783 
  278200     0.657628    299.42302   -158.86889 
  278300   0.65905011    297.09991   -214.15261 
  278400   0.66053914    297.86561    149.05285 
  278500   0.66152845     298.0477    311.73875 
  278600    0.6614744    298.31457    77.420682 
  278700   0.66071103    299.06217   -139.93582 
  278800   0.66010892    296.28658   -131.63351 
  278900   0.65973409     296.4441    86.644678 
  279000    0.6596727    295.63482    268.07283 
  279100    0.6597499    300.40815    58.793453 
  279200   0.65995567    298.75311   -218.57454 
  279300   0.66025169    298.09805    -57.45514 
  279400   0.66117104    297.37399    222.10304 
  279500   0.66193799    296.71505    172.32567 
  279600   0.66205236    298.05967   -103.22682 
  279700   0.66162247    301.31548   -28.638969 
  279800   0.66067245    298.39834   -71.508923 
  279900   0.65958264     298.6055     42.19381 
  280000    0.6588548    297.18837   -152.89589 
  280100   0.65882309     296.5232   -71.443088 
  280200   0.65850286    299.58431    46.038749 
  280300    0.6582908    298.19729    160.87457 
  280400   0.65829377    297.50447   -74.110207 
  280500   0.65840873    296.27823    26.390842 
  280600   0.65839473    297.15319    36.329089 
  280700   0.65877189     298.5215    17.107585 
  280800   0.65890315     299.1651    10.236763 
  280900   0.65876063     300.0962    104.29157 
  281000   0.65908237    299.11681   -126.92557 
  281100   0.65970561    297.12297   -96.942943 
  281200   0.66093224    298.32001    264.19135 
  281300    0.6617714    300.69249    35.529647 
  281400   0.66174774    300.34966   -286.18277 
  281500   0.66059508    299.12517   -170.76675 
  281600   0.65909535     296.4191     56.64113 
  281700   0.65851343    296.10656    58.812295 
  281800   0.65851869    296.80577    -13.91087 
  281900    0.6592049    301.64848   -218.93251 
  282000   0.66037079    299.82068    169.22269 
  282100   0.66089788    297.65056   -2.7408163 
  282200   0.66130602    296.84083   -198.54627 
  282300   0.66166496    298.10285   -114.78184 
  282400   0.66263869    295.83831    60.570584 
  282500   0.66303983     298.3406   -87.151628 
  282600   0.66361376     299.8127    6.7657957 
  282700   0.66362894    299.90885  -0.48434877 
  282800   0.66285307    299.98212   -237.26407 
  282900   0.66178345    297.53806   -82.348655 
  283000   0.66085457    296.50083   -85.352951 
  283100   0.66049698    297.77737   -82.412813 
  283200   0.66050257     300.1891    55.881362 
  283300   0.66076175    298.18022   -44.160113 
  283400   0.66063801    299.58098   -309.15594 
  283500   0.66011788    295.93561    82.997543 
  283600   0.65964368    295.30659    14.876806 
  283700   0.65973216    298.49352    -184.2433 
  283800   0.66009569    298.63023   -100.37786 
  283900   0.66069645    296.82808    398.26647 
  284000   0.66059041    295.97641    201.02686 
  284100   0.66021591    297.31377   -26.112047 
  284200   0.66033212    297.70981   -89.693481 
  284300   0.66077289    297.72101   -32.689666 
  284400   0.66114584     298.2995    215.82577 
  284500   0.66069811      299.325    188.57254 
  284600   0.66001442    299.57127   -11.690154 
  284700   0.65938436    298.05926   -88.457953 
  284800   0.65894064    296.38404   -193.31355 
  284900    0.6591692    294.13188   -180.12417 
  285000   0.65955499    298.26202    -152.4475 
  285100   0.66028201    299.67524   -150.88705 
  285200    0.6614225     297.4648   -24.111354 
  285300   0.66244877    299.53919     61.23993 
  285400   0.66289886    296.59553     117.1245 
  285500    0.6624777    297.45022   -12.206697 
  285600   0.66153537    299.77124    85.511725 
  285700   0.66042487     300.2855   -51.240728 
  285800   0.65906931     298.1477   -25.115099 
  285900   0.65838194    295.06754   -206.36491 
  286000   0.65865984    296.70061   -5.2782193 
  286100   0.65929244    298.81762   -154.96831 
  286200   0.66051882    299.55187   -31.698612 
  286300   0.66162891    295.45786   -7.4272684 
  286400   0.66219887     293.2547    118.20427 
  286500   0.66189218    296.77628   -84.375891 
  286600    0.6608743    296.77157   -46.394134 
  286700   0.65955694    298.53977  -0.81689887 
  286800   0.65862802    299.22777    29.174662 
  286900   0.65832347    296.96999    34.419047 
  287000   0.65873137     295.0777   -82.266873 
  287100   0.65955508     296.1337   -186.60537 
  287200   0.66057624    300.25625    142.40458 
  287300   0.66125882     297.3641    122.81031 
  287400   0.66153362    296.84329   -64.359281 
  287500   0.66136778    297.09834    140.85671 
  287600   0.66124426    299.43871     101.8796 
  287700   0.66118643    298.04986     14.55514 
  287800   0.66075906    298.97511   -145.91609 
  287900   0.66039751    298.21668   -96.447464 
  288000   0.66010274    296.54898   -95.257924 
  288100   0.66023233    299.34974    165.26397 
  288200    0.6603559    297.11827   -42.662182 
  288300   0.66007035    298.33247   -200.54559 
  288400   0.65978767    300.71504   -216.98526 
  288500   0.65926417    299.17342   -114.06713 
  288600   0.65862929    297.91857    207.73277 
  288700   0.65875926     297.3986     224.1227 
  288800    0.6592318    298.55062   -186.14843 
  288900   0.65987075     298.5764   -71.374293 
  289000    0.6602602    299.25065    180.19703 
  289100   0.66035234     298.1942   -240.76286 
  289200    0.6609675    295.97669    49.151008 
  289300   0.66160511    297.85675    123.82268 
  289400   0.66177072    299.65172   -23.356516 
  289500   0.66097704    299.93413    8.2767855 
  289600   0.65996272    298.12754    22.928458 
  289700    0.6595194    294.48322   -87.670409 
  289800   0.65930817    297.03131    248.06791 
  289900   0.65884664    297.41863    69.778027 
  290000   0.65860071    296.93023    12.504565 
  290100   0.65811499    297.93967   -225.87631 
  290200   0.65818703    298.07016   -23.038097 
  290300   0.65814151    294.36164    -116.5157 
  290400   0.65850109    297.56301    268.29049 
  290500   0.65898504    300.07497   -6.7975875 
  290600   0.65997446    298.29958   -415.97982 
  290700   0.66101873     298.5972    32.186784 
  290800   0.66223982    297.99499    74.168472 
  290900   0.66389926    295.58014   0.04551164 
  291000   0.66492333    300.42315     54.77081 
  291100   0.66524371    297.97653   -2.9760821 
  291200   0.66494527    298.16404    73.549292 
  291300   0.66436806    296.36315    6.4635524 
  291400   0.66391272    296.88656    -190.9482 
  291500   0.66375172     296.4624   -216.80019 
  291600   0.66349267    299.85921    266.77936 
  291700   0.66286102    299.56028    67.947389 
  291800   0.66204042    297.84069   -248.89317 
  291900   0.66118509    297.75564    21.222411 
  292000    0.6608476    296.68321   0.40292477 
  292100   0.66123207    300.16843   -247.34432 
  292200   0.66253933     298.6434   -5.7554163 
  292300   0.66401617    296.96542   -26.140868 
  292400   0.66472573    296.61235   -11.149262 
  292500   0.66439122    298.01568    171.09216 
  292600   0.66359996    298.70426    163.89724 
  292700    0.6626387    298.50748   -208.50937 
  292800   0.66155025    298.08524   -125.97933 
  292900   0.66034292    298.70366    65.889183 
  293000   0.65914564    298.16349    141.01493 
  293100   0.65826579    296.59619   -221.27785 
  293200   0.65886598    294.73423   -197.25123 
  293300   0.66070433     298.4431    12.367774 
  293400   0.66258839    298.11409    261.31154 
  293500   0.66343888    299.18955    244.25246 
  293600   0.66336922    299.22702    91.061881 
  293700   0.66246554     298.1533   -252.11912 
  293800     0.661454     298.7682    -184.3792 
  293900   0.66090028    299.34054    107.97237 
  294000     0.660561     300.4565   -17.086844 
  294100   0.66058025    297.99967    21.166293 
  294200   0.66088233    297.11081   -63.217585 
  294300   0.66195997    298.16952    24.373063 
  294400   0.66361861    297.96085   -265.63404 
  294500   0.66517104    297.81436   -134.60562 
  294600   0.66559095    298.82005    124.55048 
  294700   0.66534403    297.86663    450.77227 
  294800   0.66482107    297.62556   -31.596895 
  294900   0.66493322    295.25009   -163.41406 
  295000   0.66512606    294.74423    217.03729 
  295100    0.6653366    298.09505    303.87578 
  295200   0.66553957    297.53683     83.03477 
  295300   0.66529421    297.80873    119.60255 
  295400   0.66449964    298.11831    18.283622 
  295500   0.66342054    298.87574    56.461838 
  295600   0.66272509    296.17041    151.03325 
  295700   0.66283017    299.17548   -72.290718 
  295800   0.66358769    298.80662   -115.15209 
  295900   0.66418705    300.36945    239.89153 
  296000   0.66474542    300.39806    201.64162 
  296100   0.66522616    298.37764   -38.610318 
  296200   0.66514548    297.92913    83.095202 
  296300   0.66473915    299.08027    155.43092 
  296400   0.66469339    299.11641    457.85665 
  296500   0.66408509    297.57471    233.74499 
  296600   0.66269105     299.0285    21.794905 
  296700   0.66126536    297.21302   -234.03588 
  296800    0.6607821    295.80109    62.605883 
  296900   0.66157426    296.72988    38.532381 
  297000   0.66287543    297.70737    6.8991373 
  297100    0.6640726    299.31708    174.45854 
  297200   0.66399577    298.28203    169.90155 
  297300   0.66342816    294.81523    40.396111 
  297400   0.66267865    296.09644   -187.14525 
  297500   0.66226241    299.06339   -234.62873 
  297600   0.66258663    299.43505    261.09325 
  297700   0.66253915    299.66012    158.29493 
  297800    0.6624296    296.55331   -94.340666 
  297900   0.66220927    295.47276    -274.7646 
  298000   0.66253432    297.37842   -244.23994 
  298100   0.66388377    298.90464    190.55434 
  298200   0.66538428    300.54941    101.71049 
  298300   0.66625027    298.58765    77.400837 
  298400   0.66596857    297.93676   -228.25273 
  298500   0.66505666    296.75628   -69.671263 
  298600    0.6639068    294.99697    84.261202 
  298700   0.66253469    297.95708    106.81362 
  298800    0.6608486    298.15047   -92.360773 
  298900   0.65972439    299.39843   -34.994172 
  299000   0.65988304    297.64635    131.41649 
  299100   0.66049611    296.73026   -284.22695 
  299200   0.66139214    297.96255   -121.28815 
  299300   0.66138025     300.0246    118.24041 
  299400   0.66089462    298.99951   -10.570918 
  299500   0.66032258    297.66618    -156.9167 
  299600    0.6599712    297.02587     155.8144 
  299700   0.65955486    299.67777   -202.22644 
  299800   0.65931734    299.67949    10.076807 
  299900   0.65863401    299.81296    117.24297 
  300000    0.6577117     296.3043   -111.88533 
Loop time of 3040.44 on 4 procs for 100000 steps with 24000 atoms

Performance: 2.842 ns/day, 8.446 hours/ns, 32.890 timesteps/s
94.0% CPU use with 4 MPI tasks x 1 OpenMP threads

MPI task timing breakdown:
Section |  min time  |  avg time  |  max time  |%varavg| %total
---------------------------------------------------------------
Pair    | 2440.4     | 2482.9     | 2524.8     |  74.9 | 81.66
Bond    | 162.55     | 164.1      | 165.95     |  12.0 |  5.40
Neigh   | 105.81     | 106.1      | 106.55     |   2.7 |  3.49
Comm    | 177.26     | 218.47     | 259.73     | 245.9 |  7.19
Output  | 1.7418     | 1.7659     | 1.8343     |   3.0 |  0.06
Modify  | 45.316     | 45.991     | 46.787     |   8.4 |  1.51
Other   |            | 21.1       |            |       |  0.69

Nlocal:    6000 ave 6047 max 5958 min
Histogram: 1 1 0 0 0 0 1 0 0 1
Nghost:    16395 ave 16441 max 16353 min
Histogram: 2 0 0 0 0 0 0 0 1 1
Neighs:    1.40659e+06 ave 1.45074e+06 max 1.36351e+06 min
Histogram: 1 1 0 0 0 0 0 1 0 1

Total # of neighbors = 5626342
Ave neighs/atom = 234.431
Ave special neighs/atom = 4
Neighbor list builds = 1714
Dangerous builds = 0
System init for write_restart ...
Total wall time: 2:29:31
