LAMMPS (3 Mar 2020)
OMP_NUM_THREADS environment is not set. Defaulting to 1 thread. (src/comm.cpp:94)
  using 1 OpenMP thread(s) per MPI task
OMP_NUM_THREADS environment is not set. Defaulting to 1 thread. (src/comm.cpp:94)
  using 1 OpenMP thread(s) per MPI task
Lattice spacing in x,y,z = 12 12 12
Created orthogonal box = (0 0 0) to (180 180 180)
  1 by 2 by 2 MPI processor grid
Read molecule hexane:
  6 atoms with max type 2
  5 bonds with max type 1
  4 angles with max type 1
  3 dihedrals with max type 1
  0 impropers with max type 0
Created 81000 atoms
  create_atoms CPU = 0.0494298 secs
Neighbor list info ...
  update every 1 steps, delay 10 steps, check yes
  max neighbors/atom: 2000, page size: 100000
  master list distance cutoff = 16
  ghost atom cutoff = 16
  binsize = 8, bins = 23 23 23
  1 neighbor lists, perpetual/occasional/extra = 1 0 0
  (1) pair lj/cut, perpetual
      attributes: half, newton on
      pair build: half/bin/newton
      stencil: half/bin/3d/newton
      bin: standard
Setting up Verlet run ...
  Unit style    : metal
  Current step  : 0
  Time step     : 0.001
Per MPI rank memory allocation (min/avg/max) = 33.59 | 33.59 | 33.59 Mbytes
Step Temp E_pair E_mol TotEng Press 
       0            0    809.66183     575.5401    1385.2019    7090.4445 
    1000     203.0949   -1704.6059     941.1931    1362.9791    572.19374 
Loop time of 56.5579 on 4 procs for 1000 steps with 81000 atoms

Performance: 1.528 ns/day, 15.711 hours/ns, 17.681 timesteps/s
94.5% CPU use with 4 MPI tasks x 1 OpenMP threads

MPI task timing breakdown:
Section |  min time  |  avg time  |  max time  |%varavg| %total
---------------------------------------------------------------
Pair    | 40.683     | 40.867     | 41.06      |   2.3 | 72.26
Bond    | 5.4296     | 5.486      | 5.5367     |   1.7 |  9.70
Neigh   | 5.543      | 5.5516     | 5.5635     |   0.4 |  9.82
Comm    | 3.0316     | 3.1579     | 3.3018     |   7.0 |  5.58
Output  | 0.00017109 | 0.00017476 | 0.00017631 |   0.0 |  0.00
Modify  | 0.91525    | 0.92589    | 0.93156    |   0.7 |  1.64
Other   |            | 0.5693     |            |       |  1.01

Nlocal:    20250 ave 20309 max 20157 min
Histogram: 1 0 0 0 0 1 0 0 0 2
Nghost:    22915.8 ave 23044 max 22848 min
Histogram: 2 0 0 1 0 0 0 0 0 1
Neighs:    2.37741e+06 ave 2.38465e+06 max 2.36355e+06 min
Histogram: 1 0 0 0 0 0 1 0 0 2

Total # of neighbors = 9509640
Ave neighs/atom = 117.403
Ave special neighs/atom = 4
Neighbor list builds = 54
Dangerous builds = 0
Setting up Verlet run ...
  Unit style    : metal
  Current step  : 1000
  Time step     : 0.001
Per MPI rank memory allocation (min/avg/max) = 33.6 | 33.6 | 33.6 Mbytes
Step Density Temp Press 
    1000   0.33123908     203.0949    572.19374 
    1100   0.33123908    227.97202   -16.904481 
    1200   0.33123908    233.96691   -660.19075 
    1300   0.33123908    238.09513   -1788.4112 
    1400   0.33123908    259.29388    -846.5167 
    1500   0.33123908    285.60369    334.59173 
    1600   0.33123908    294.50509    689.86243 
    1700   0.33123908    297.86164    1578.6415 
    1800   0.33123908    298.34608    1667.3156 
    1900   0.33123908    301.62431    478.19662 
    2000   0.33123908    303.92783   -263.03164 
    2100   0.33123908    300.80982   -968.73341 
    2200   0.33123908    293.62141   -1821.6827 
    2300   0.33123908    291.56963   -1279.2287 
    2400   0.33123908    295.51227   -526.67357 
    2500   0.33123908    295.71597    190.46047 
    2600   0.33123908    295.60674     1171.952 
    2700   0.33123908    296.07101     1429.377 
    2800   0.33123908    303.13751     1095.706 
    2900   0.33123908    302.87287    628.13725 
    3000   0.33123908    299.36872   -187.82448 
    3100   0.33123908    294.63855   -893.15784 
    3200   0.33123908    294.07978   -1056.3378 
    3300   0.33123908    297.27488   -988.61799 
    3400   0.33123908     299.6503   -529.46915 
    3500   0.33123908    298.93417     93.19097 
    3600   0.33123908    296.18391    494.32397 
    3700   0.33123908    295.58403    764.22698 
    3800   0.33123908    297.16568    845.37314 
    3900   0.33123908    300.41534    443.33269 
    4000   0.33123908    301.29349    84.613059 
    4100   0.33123908    297.97922   -228.64354 
    4200   0.33123908     296.3867   -528.63458 
    4300   0.33123908    296.68017   -565.12547 
    4400   0.33123908    297.16268   -470.76379 
    4500   0.33123908    298.78047   -214.07105 
    4600   0.33123908    298.81823    5.3458385 
    4700   0.33123908    296.33951    190.08051 
    4800   0.33123908    298.81504    314.08866 
    4900   0.33123908    298.25284    304.59682 
    5000   0.33123908    297.54849    244.29793 
    5100   0.33123908    297.76553    165.45649 
    5200   0.33123908    296.60689    63.789129 
    5300   0.33123908    296.92578   -54.312204 
    5400   0.33123908    296.74646     -175.701 
    5500   0.33123908    299.11898   -195.35974 
    5600   0.33123908    299.07843   -281.80377 
    5700   0.33123908    296.98377   -290.90299 
    5800   0.33123908    297.93815   -206.08975 
    5900   0.33123908    298.88398   -206.74508 
    6000   0.33123908    297.93528   -81.848461 
Loop time of 303.544 on 4 procs for 5000 steps with 81000 atoms

Performance: 1.423 ns/day, 16.864 hours/ns, 16.472 timesteps/s
92.3% CPU use with 4 MPI tasks x 1 OpenMP threads

MPI task timing breakdown:
Section |  min time  |  avg time  |  max time  |%varavg| %total
---------------------------------------------------------------
Pair    | 218.81     | 221.29     | 224.59     |  14.8 | 72.90
Bond    | 27.014     | 27.245     | 27.408     |   2.8 |  8.98
Neigh   | 26.219     | 26.309     | 26.398     |   1.2 |  8.67
Comm    | 16.901     | 19.935     | 22.43      |  47.7 |  6.57
Output  | 0.010098   | 0.010805   | 0.012191   |   0.8 |  0.00
Modify  | 5.7423     | 5.88       | 6.0539     |   4.9 |  1.94
Other   |            | 2.877      |            |       |  0.95

Nlocal:    20250 ave 20399 max 20050 min
Histogram: 1 0 0 0 0 1 0 1 0 1
Nghost:    22809 ave 23034 max 22530 min
Histogram: 1 0 0 0 0 1 1 0 0 1
Neighs:    2.52372e+06 ave 2.55391e+06 max 2.48836e+06 min
Histogram: 1 0 0 0 0 1 1 0 0 1

Total # of neighbors = 10094860
Ave neighs/atom = 124.628
Ave special neighs/atom = 4
Neighbor list builds = 243
Dangerous builds = 0
Setting up Verlet run ...
  Unit style    : metal
  Current step  : 6000
  Time step     : 0.001
Per MPI rank memory allocation (min/avg/max) = 33.98 | 34.08 | 34.37 Mbytes
Step Density Temp Press 
    6000   0.33123908    297.93528   -81.848461 
    6100   0.33327456    297.56636   -83.380489 
    6200   0.33532675    299.36057    80.492568 
    6300   0.33739583    298.30427    174.98017 
    6400   0.33948197    296.92965    232.47175 
    6500   0.34158533    296.66252    219.13025 
    6600   0.34370612    297.68752    157.26596 
    6700   0.34584449    299.69231   -45.634841 
    6800   0.34800064    298.90748   -248.32409 
    6900   0.35017475    296.00911   -413.72731 
    7000   0.35236701    296.81083    -476.0588 
    7100    0.3545776     298.1923   -497.71346 
    7200   0.35680673    299.69192   -407.05088 
    7300   0.35905457    298.59313   -162.71353 
    7400   0.36132135    296.17966    54.185986 
    7500   0.36360724    297.28476    183.83961 
    7600   0.36591245    298.73995    330.78334 
    7700   0.36823719    298.67016    361.11446 
    7800   0.37058167    296.65344    225.37795 
    7900   0.37294609    297.20196    47.065014 
    8000   0.37533067     296.1186   -143.01903 
    8100   0.37773562    298.32269   -315.22134 
    8200   0.38016116    300.23717   -424.00251 
    8300   0.38260752    298.44521   -485.27412 
    8400    0.3850749    296.85243   -403.52944 
    8500   0.38756355    296.75098   -263.56983 
    8600   0.39007369    296.77338   -101.71128 
    8700   0.39260556    299.61185    65.381383 
    8800   0.39515938    298.41797    225.02585 
    8900    0.3977354    298.95702    240.96903 
    9000   0.40033386    296.02197    218.66803 
    9100     0.402955    296.66179    197.76592 
    9200   0.40559908     298.3914    38.434048 
    9300   0.40826634     299.4742   -138.58138 
    9400   0.41095704    299.38375    -313.4081 
    9500   0.41367143    296.63271   -352.16268 
    9600   0.41640978    295.80628   -373.11654 
    9700   0.41917236    298.28907   -404.75324 
    9800   0.42195942    298.44418   -308.26193 
    9900   0.42477125    298.80421   -64.455378 
   10000   0.42760812    298.40268    40.041944 
   10100    0.4304703    297.58424    79.643094 
   10200   0.43335809    297.54296    158.98749 
   10300   0.43627176    296.99414    193.48985 
   10400   0.43921161    298.42391    165.55282 
   10500   0.44217794    299.46703    61.731159 
   10600   0.44517104    298.70163   -52.408726 
   10700   0.44819121    296.69539   -177.07697 
   10800   0.45123877    296.05242   -235.16917 
   10900   0.45431401    297.28557   -306.91171 
   11000   0.45741727    298.52097   -343.31295 
   11100   0.46054885    299.95211   -294.29842 
   11200   0.46370908    299.63606   -141.44224 
   11300    0.4668983    296.94749   -48.695339 
   11400   0.47011682    296.70005     100.6615 
   11500     0.473365    299.41292    245.39908 
   11600   0.47664317    299.49158    216.80558 
   11700   0.47995168    298.75657    242.71991 
   11800   0.48329088    297.11489    139.05579 
   11900   0.48666112    297.35574   -61.813875 
   12000   0.49006278    297.79543   -140.60951 
   12100   0.49349622    299.14765   -237.30093 
   12200    0.4969618    299.91062   -242.84919 
   12300   0.50045991    298.20987   -308.86292 
   12400   0.50399092    296.88673    -315.3403 
   12500   0.50755523    298.35137    -118.5729 
   12600   0.51115324    299.41301    47.273316 
   12700   0.51478533    299.08369    145.26302 
   12800   0.51845191    300.28969    251.39277 
   12900   0.52215339    298.13692    288.01705 
   13000    0.5258902    298.04301    218.08515 
   13100   0.52966275    297.29832     168.6385 
   13200   0.53347147    297.52304    51.122663 
   13300   0.53731679    298.12304   -8.2710833 
   13400   0.54119916    298.96864   -21.048069 
   13500   0.54511902    296.72072   -102.09101 
   13600   0.54907683     297.5004   -146.72618 
   13700   0.55307304    297.31769    3.8871375 
   13800   0.55710813    299.05323    57.469776 
   13900   0.56118257    299.10102    110.34545 
   14000   0.56529683    299.07677    146.74695 
   14100   0.56945141    298.33557     211.6817 
   14200    0.5736468    297.00585    292.30387 
   14300   0.57788351    296.74656    287.40482 
   14400   0.58216204    298.16021    330.05658 
   14500   0.58648291    299.32807    308.25086 
   14600   0.59084665    299.70927    223.70485 
   14700   0.59525378    297.66525    248.68434 
   14800   0.59970486    297.28911    225.97944 
   14900   0.60420042    296.99571    222.36682 
   15000   0.60874103    298.87619    127.37593 
   15100   0.61332725    299.11911    320.55576 
   15200   0.61795966    298.34025    320.88788 
   15300   0.62263884    297.86645    450.17454 
   15400   0.62736537    298.55809    551.82608 
   15500   0.63213987    296.75718    534.28798 
   15600   0.63696294     298.5389       735.59 
   15700    0.6418352    299.00086    854.31519 
   15800   0.64675727    299.57626    787.75811 
   15900   0.65172981    299.31219    765.80623 
   16000   0.65675345     297.7484    784.13608 
Loop time of 776.062 on 4 procs for 10000 steps with 81000 atoms

Performance: 1.113 ns/day, 21.557 hours/ns, 12.886 timesteps/s
96.0% CPU use with 4 MPI tasks x 1 OpenMP threads

MPI task timing breakdown:
Section |  min time  |  avg time  |  max time  |%varavg| %total
---------------------------------------------------------------
Pair    | 597.72     | 614.82     | 628.92     |  46.0 | 79.22
Bond    | 53.171     | 53.632     | 54.121     |   5.2 |  6.91
Neigh   | 51.4       | 51.484     | 51.545     |   0.8 |  6.63
Comm    | 23.461     | 37.42      | 54.714     | 186.9 |  4.82
Output  | 0.031525   | 0.037721   | 0.054643   |   5.0 |  0.00
Modify  | 11.897     | 12.182     | 12.625     |   7.9 |  1.57
Other   |            | 6.485      |            |       |  0.84

Nlocal:    20250 ave 20520 max 20062 min
Histogram: 2 0 0 0 0 1 0 0 0 1
Nghost:    31748 ave 31924 max 31641 min
Histogram: 1 0 2 0 0 0 0 0 0 1
Neighs:    4.75116e+06 ave 4.92212e+06 max 4.65257e+06 min
Histogram: 2 0 0 0 1 0 0 0 0 1

Total # of neighbors = 19004636
Ave neighs/atom = 234.625
Ave special neighs/atom = 4
Neighbor list builds = 364
Dangerous builds = 0
Setting up Verlet run ...
  Unit style    : metal
  Current step  : 16000
  Time step     : 0.001
Per MPI rank memory allocation (min/avg/max) = 49.78 | 50.17 | 50.94 Mbytes
Step Density Temp Press 
   16000   0.65675345          298    1205.1037 
   16100   0.65675345    291.04771     561.0614 
   16200   0.65675345    292.82057    362.57447 
   16300   0.65675345     296.4045    457.95676 
   16400   0.65675345    296.10292    531.14698 
   16500   0.65675345    304.12107    460.17587 
   16600   0.65675345    297.88618    505.24166 
   16700   0.65675345    297.94691    559.44489 
   16800   0.65675345    289.90094    289.41863 
   16900   0.65675345    295.13444    431.57753 
   17000   0.65675345    301.74738    499.08293 
   17100   0.65675345    296.80659    277.19222 
   17200   0.65675345    297.50788    317.35979 
   17300   0.65675345    294.86137    281.93131 
   17400   0.65675345     303.7763    302.72912 
   17500   0.65675345    303.80307    476.92509 
   17600   0.65675345    297.38949    481.56854 
   17700   0.65675345    295.11948    277.28313 
   17800   0.65675345    294.28206    389.49567 
   17900   0.65675345    300.37435    399.78208 
   18000   0.65675345    300.36139    321.13257 
   18100   0.65675345    300.50342    317.30407 
   18200   0.65675345    294.87739    271.82629 
   18300   0.65675345    292.20166    224.08573 
   18400   0.65675345    297.82492    188.00078 
   18500   0.65675345    298.59994    244.14333 
   18600   0.65675345    301.21861    279.04626 
   18700   0.65675345    297.77981    334.99092 
   18800   0.65675345    295.71457    290.10029 
   18900   0.65675345    297.26831    270.37464 
   19000   0.65675345    298.11352    320.70134 
   19100   0.65675345    298.30454    373.70378 
   19200   0.65675345     298.1071     359.8239 
   19300   0.65675345    298.11492    408.56847 
   19400   0.65675345    299.68854    157.99948 
   19500   0.65675345    299.23272    242.62348 
   19600   0.65675345    299.02956    226.19646 
   19700   0.65675345    295.79426    72.234356 
   19800   0.65675345    296.75878    147.95675 
   19900   0.65675345    298.90375     225.6212 
   20000   0.65675345    300.36598    172.76144 
   20100   0.65675345    298.72204    229.12977 
   20200   0.65675345     296.8107    188.93503 
   20300   0.65675345    295.91002    324.37559 
   20400   0.65675345    297.01063    349.27871 
   20500   0.65675345    299.83893    192.78932 
   20600   0.65675345    299.02661    276.71238 
   20700   0.65675345    296.65883    328.61815 
   20800   0.65675345    296.24464    111.01315 
   20900   0.65675345    296.85972    175.84938 
   21000   0.65675345    298.06943    312.45359 
   21100   0.65675345     299.2992    267.26018 
   21200   0.65675345      296.957    172.00864 
   21300   0.65675345    296.39573    181.10426 
   21400   0.65675345    298.30613    210.34091 
   21500   0.65675345    299.17169    253.88929 
   21600   0.65675345    298.18044    288.63607 
   21700   0.65675345    296.74094    338.89875 
   21800   0.65675345    296.42309    375.43461 
   21900   0.65675345    299.35982    300.35461 
   22000   0.65675345    300.58193    316.06893 
   22100   0.65675345    298.76737    268.25849 
   22200   0.65675345    298.25488    181.51261 
   22300   0.65675345    295.81111    132.57111 
   22400   0.65675345    297.22908    260.39008 
   22500   0.65675345    301.22658    245.56078 
   22600   0.65675345    299.73083    211.08365 
   22700   0.65675345    298.27163    199.80535 
   22800   0.65675345    296.91767    189.42714 
   22900   0.65675345    297.75155    227.05215 
   23000   0.65675345    298.72453    270.00475 
   23100   0.65675345    300.12248    351.56069 
   23200   0.65675345     299.3677    192.64661 
   23300   0.65675345    297.21308    204.96335 
   23400   0.65675345    297.47835     243.3989 
   23500   0.65675345      296.581    266.68926 
   23600   0.65675345    298.62823    247.04614 
   23700   0.65675345    299.53741    165.31472 
   23800   0.65675345    297.71359    85.483822 
   23900   0.65675345    298.96476     160.3759 
   24000   0.65675345    298.12208    117.37756 
   24100   0.65675345    297.66867    193.28772 
   24200   0.65675345    299.69379    328.68622 
   24300   0.65675345     298.1809    182.62762 
   24400   0.65675345    298.84143    106.91598 
   24500   0.65675345    298.27609    324.64838 
   24600   0.65675345    297.63559    273.05004 
   24700   0.65675345    297.24487    266.33755 
   24800   0.65675345    297.57827    257.29175 
   24900   0.65675345    297.23448     158.9651 
   25000   0.65675345    298.89838     210.1175 
   25100   0.65675345    298.95202    264.87014 
   25200   0.65675345    296.68765    172.98318 
   25300   0.65675345    297.85321      275.714 
   25400   0.65675345    297.80916    273.67085 
   25500   0.65675345    298.30257     311.6009 
   25600   0.65675345    298.97773    277.74661 
   25700   0.65675345    298.00958    248.85732 
   25800   0.65675345    296.74895    174.81547 
   25900   0.65675345    297.87517    287.08703 
   26000   0.65675345    299.73848    236.91908 
   26100   0.65675345    299.93183    79.166439 
   26200   0.65675345      298.019     250.8434 
   26300   0.65675345    297.71572    253.70447 
   26400   0.65675345     297.7706    185.25075 
   26500   0.65675345    297.75305    162.38338 
   26600   0.65675345    298.69586    199.23629 
   26700   0.65675345    299.44842    243.55115 
   26800   0.65675345    298.05573    273.63629 
   26900   0.65675345    297.59461    127.51756 
   27000   0.65675345    296.74308    203.39353 
   27100   0.65675345    297.16849    192.24558 
   27200   0.65675345    298.03568    176.91901 
   27300   0.65675345     298.9696    138.81773 
   27400   0.65675345      297.958    189.46347 
   27500   0.65675345    297.77722    200.42156 
   27600   0.65675345    298.42953    168.81733 
   27700   0.65675345    297.73175     141.3961 
   27800   0.65675345    298.57246    162.13656 
   27900   0.65675345    296.53313    154.85777 
   28000   0.65675345    298.38704    247.36277 
   28100   0.65675345    299.18045    315.25916 
   28200   0.65675345    298.66107    279.25463 
   28300   0.65675345    297.67211    208.89788 
   28400   0.65675345     298.3829    118.42811 
   28500   0.65675345     299.4182    161.68515 
   28600   0.65675345    298.94996    167.77782 
   28700   0.65675345    297.57543    127.71686 
   28800   0.65675345    296.86489    187.79935 
   28900   0.65675345    297.88287    239.76345 
   29000   0.65675345    298.24761    230.09327 
   29100   0.65675345    297.29819    120.15654 
   29200   0.65675345    297.19552    167.75343 
   29300   0.65675345    297.00111    235.63354 
   29400   0.65675345    298.86444     241.0018 
   29500   0.65675345    299.12847    237.72978 
   29600   0.65675345    298.21399    187.10655 
   29700   0.65675345    297.44503    118.01765 
   29800   0.65675345    297.63531    202.64678 
   29900   0.65675345    298.10022    313.13817 
   30000   0.65675345    298.55243    196.98217 
   30100   0.65675345    298.59783    80.739854 
   30200   0.65675345     297.8857    157.11253 
   30300   0.65675345    296.68814    293.89585 
   30400   0.65675345    299.52632    269.94097 
   30500   0.65675345    298.43996    212.45122 
   30600   0.65675345    297.48302      166.003 
   30700   0.65675345    296.74232    176.78632 
   30800   0.65675345    297.72989    70.715041 
   30900   0.65675345      298.601    57.026938 
   31000   0.65675345    298.05411    170.67482 
   31100   0.65675345    298.01625    151.11315 
   31200   0.65675345    296.36511    230.30557 
   31300   0.65675345    295.22056    316.47613 
   31400   0.65675345    296.69576    180.11673 
   31500   0.65675345    297.18556    266.90009 
   31600   0.65675345    297.72253    295.54092 
   31700   0.65675345    298.95931    154.27614 
   31800   0.65675345    297.49165     144.1785 
   31900   0.65675345    296.53718    204.54194 
   32000   0.65675345    297.62685    257.00504 
   32100   0.65675345    298.52202    297.38309 
   32200   0.65675345    298.68169    240.08644 
   32300   0.65675345    298.05568    232.27902 
   32400   0.65675345    298.68469    284.37475 
   32500   0.65675345    299.75913    329.26939 
   32600   0.65675345     299.3742    165.88993 
   32700   0.65675345    298.31689    223.71558 
   32800   0.65675345    297.05973    276.84329 
   32900   0.65675345     297.1879    149.21937 
   33000   0.65675345    297.71635    260.34988 
   33100   0.65675345    299.02018    260.32972 
   33200   0.65675345    299.11979    202.04289 
   33300   0.65675345    298.58284    286.96151 
   33400   0.65675345    297.88268    309.84269 
   33500   0.65675345    297.57847    132.53273 
   33600   0.65675345     297.6871    222.92836 
   33700   0.65675345    298.93699    265.96439 
   33800   0.65675345    298.97832    118.05309 
   33900   0.65675345    300.12382    58.761077 
   34000   0.65675345    298.85322    164.16809 
   34100   0.65675345    298.35793    222.78304 
   34200   0.65675345    298.13513    226.19752 
   34300   0.65675345    298.52457    190.23198 
   34400   0.65675345    298.19463    82.452716 
   34500   0.65675345    296.57964    249.15773 
   34600   0.65675345    297.64973    264.34877 
   34700   0.65675345    297.60751    240.59133 
   34800   0.65675345    299.67756    249.98367 
   34900   0.65675345    299.40153    216.27384 
   35000   0.65675345    297.88961    101.78471 
   35100   0.65675345    297.45081    241.93489 
   35200   0.65675345    298.58728    183.80945 
   35300   0.65675345    298.66628    228.40408 
   35400   0.65675345    298.70272    337.46392 
   35500   0.65675345    296.80999    141.85338 
   35600   0.65675345    296.30982    107.57526 
   35700   0.65675345    297.06473    229.39847 
   35800   0.65675345    296.63643    148.99902 
   35900   0.65675345    298.05385    259.63631 
   36000   0.65675345    298.35731    229.64526 
   36100   0.65675345    299.53788    118.53836 
   36200   0.65675345    297.33021    216.40144 
   36300   0.65675345    296.17513    257.68596 
   36400   0.65675345    298.71803    36.588387 
   36500   0.65675345    298.76851    250.00934 
   36600   0.65675345    298.61659     364.5843 
   36700   0.65675345    299.91707    158.61763 
   36800   0.65675345    299.29355    98.347237 
   36900   0.65675345    296.86192    210.45901 
   37000   0.65675345    297.62633    172.77173 
   37100   0.65675345     297.7776     320.3949 
   37200   0.65675345    299.57702    243.00122 
   37300   0.65675345    298.54222    59.008381 
   37400   0.65675345    298.65635    200.98234 
   37500   0.65675345    297.09602    276.81141 
   37600   0.65675345    297.17389    140.89664 
   37700   0.65675345    297.90902    176.98362 
   37800   0.65675345     300.4192    307.19359 
   37900   0.65675345    298.36297    197.38668 
   38000   0.65675345     298.8834    169.48847 
   38100   0.65675345    299.20838    242.65537 
   38200   0.65675345    296.94533    132.58296 
   38300   0.65675345    297.05463    189.73118 
   38400   0.65675345    297.81563     293.1323 
   38500   0.65675345    299.48548    134.36678 
   38600   0.65675345    298.74152     252.2275 
   38700   0.65675345    297.21412    278.25241 
   38800   0.65675345    297.61275    124.98263 
   38900   0.65675345    298.55208    134.52263 
   39000   0.65675345    299.32017    207.62047 
   39100   0.65675345    299.34988    100.27245 
   39200   0.65675345    296.75221    175.68311 
   39300   0.65675345    296.76111    156.50436 
   39400   0.65675345    297.62429    102.40836 
   39500   0.65675345     296.7522    151.99626 
   39600   0.65675345    297.71355    207.21446 
   39700   0.65675345    298.23899    178.28207 
   39800   0.65675345    297.40719    190.05767 
   39900   0.65675345    298.43765    192.72162 
   40000   0.65675345    297.28682    117.75394 
   40100   0.65675345       297.57    192.73853 
   40200   0.65675345    295.71578    201.93533 
   40300   0.65675345    297.74174    109.82009 
   40400   0.65675345     298.4844    196.87208 
   40500   0.65675345    298.51735    173.18397 
   40600   0.65675345    298.11771    87.970534 
   40700   0.65675345    298.33573     183.8681 
   40800   0.65675345    297.56169    145.50157 
   40900   0.65675345    298.23893    143.58036 
   41000   0.65675345    299.40296    106.66182 
   41100   0.65675345    298.43941    126.67714 
   41200   0.65675345    298.17341    240.03686 
   41300   0.65675345     297.9331     140.2067 
   41400   0.65675345    298.67841    161.76016 
   41500   0.65675345    296.69652     219.7474 
   41600   0.65675345    296.93487    165.40446 
   41700   0.65675345    299.51122    139.94363 
   41800   0.65675345    299.35582    193.74589 
   41900   0.65675345    297.39562    234.38877 
   42000   0.65675345    298.00489    204.49779 
   42100   0.65675345     297.4165    61.501894 
   42200   0.65675345    298.29658    207.83994 
   42300   0.65675345    299.14394     187.2618 
   42400   0.65675345    297.77426    130.30275 
   42500   0.65675345    298.06862    108.04979 
   42600   0.65675345    297.59491    177.99788 
   42700   0.65675345    299.25382    224.51422 
   42800   0.65675345    298.13792    289.63346 
   42900   0.65675345    297.57472    114.13393 
   43000   0.65675345    298.11228    77.650693 
   43100   0.65675345    298.11949    187.69738 
   43200   0.65675345    298.95687    202.83561 
   43300   0.65675345    297.49145    145.76872 
   43400   0.65675345    296.89782    244.65152 
   43500   0.65675345     298.4714    138.98199 
   43600   0.65675345    297.25541    117.62732 
   43700   0.65675345    298.21199    186.02453 
   43800   0.65675345     298.9876    176.55884 
   43900   0.65675345    298.63293    187.33544 
   44000   0.65675345    298.81022    194.75551 
   44100   0.65675345    297.75539    121.74999 
   44200   0.65675345    296.43121    196.71173 
   44300   0.65675345    299.00918     210.3344 
   44400   0.65675345     298.9404    120.18797 
   44500   0.65675345    298.82539    149.81277 
   44600   0.65675345    298.27378    162.89846 
   44700   0.65675345    297.35874    166.61504 
   44800   0.65675345    297.49566    135.14949 
   44900   0.65675345    297.44613    204.14805 
   45000   0.65675345    297.42721    146.50191 
   45100   0.65675345    297.09144    181.66816 
   45200   0.65675345     296.4381    177.77095 
   45300   0.65675345    295.37576    100.37367 
   45400   0.65675345    297.82373    99.190826 
   45500   0.65675345    297.55544    25.802158 
   45600   0.65675345    298.90226    140.58121 
   45700   0.65675345    297.54989    200.49441 
   45800   0.65675345    299.50202    218.09641 
   45900   0.65675345    297.65448    148.77495 
   46000   0.65675345    297.94323    246.76677 
   46100   0.65675345    298.61983    199.17762 
   46200   0.65675345    299.19219    21.264998 
   46300   0.65675345    297.68093    218.92244 
   46400   0.65675345    299.82443    248.26241 
   46500   0.65675345    299.84197    171.89751 
   46600   0.65675345    298.15984      32.5547 
   46700   0.65675345    297.28973    258.88551 
   46800   0.65675345    298.82279    163.18101 
   46900   0.65675345    296.81901    154.51554 
   47000   0.65675345    296.64895    163.44114 
   47100   0.65675345    298.47077    253.06435 
   47200   0.65675345    299.51263    170.44971 
   47300   0.65675345    297.44737    46.069135 
   47400   0.65675345    297.35251    111.16538 
   47500   0.65675345    298.27625    250.09358 
   47600   0.65675345    297.55858    67.991711 
   47700   0.65675345    297.98798    104.79719 
   47800   0.65675345    299.56025    163.94854 
   47900   0.65675345    298.86964    195.32912 
   48000   0.65675345    299.01735    139.39772 
   48100   0.65675345    297.42657    159.88261 
   48200   0.65675345    298.34052    227.14518 
   48300   0.65675345    298.29278    88.090288 
   48400   0.65675345    296.80358     114.0999 
   48500   0.65675345    296.81893    160.29227 
   48600   0.65675345    296.77675    188.15921 
   48700   0.65675345    300.55406    98.931034 
   48800   0.65675345     299.0914    205.87461 
   48900   0.65675345    297.71796    131.11874 
   49000   0.65675345    297.45049    99.722191 
   49100   0.65675345     297.7395    178.31313 
   49200   0.65675345    296.45396    44.015402 
   49300   0.65675345    297.40775    93.717043 
   49400   0.65675345    298.38714    223.11451 
   49500   0.65675345    298.59009    215.72317 
   49600   0.65675345    298.99659    224.15984 
   49700   0.65675345    298.48045    95.005736 
   49800   0.65675345    297.03911    35.490507 
   49900   0.65675345    297.00831    180.67296 
   50000   0.65675345    298.58416    274.33416 
Loop time of 3418.7 on 4 procs for 34000 steps with 81000 atoms

Performance: 0.859 ns/day, 27.931 hours/ns, 9.945 timesteps/s
95.2% CPU use with 4 MPI tasks x 1 OpenMP threads

MPI task timing breakdown:
Section |  min time  |  avg time  |  max time  |%varavg| %total
---------------------------------------------------------------
Pair    | 2799.9     | 2874.5     | 2951.6     | 104.1 | 84.08
Bond    | 180.25     | 184.62     | 188.28     |  21.1 |  5.40
Neigh   | 128.98     | 129.05     | 129.15     |   0.6 |  3.77
Comm    | 90.876     | 164.19     | 235.69     | 416.6 |  4.80
Output  | 0.056524   | 0.075703   | 0.12465    |  10.3 |  0.00
Modify  | 39.561     | 40.383     | 41.616     |  12.7 |  1.18
Other   |            | 25.84      |            |       |  0.76

Nlocal:    20250 ave 20345 max 20165 min
Histogram: 1 0 0 1 0 1 0 0 0 1
Nghost:    31694.5 ave 31734 max 31653 min
Histogram: 1 1 0 0 0 0 0 0 1 1
Neighs:    4.73712e+06 ave 4.80333e+06 max 4.6783e+06 min
Histogram: 1 0 0 1 1 0 0 0 0 1

Total # of neighbors = 18948491
Ave neighs/atom = 233.932
Ave special neighs/atom = 4
Neighbor list builds = 638
Dangerous builds = 0
Setting up Verlet run ...
  Unit style    : metal
  Current step  : 50000
  Time step     : 0.001
Per MPI rank memory allocation (min/avg/max) = 50.17 | 50.37 | 50.94 Mbytes
Step Density Temp Press 
   50000   0.65675345    298.58416    274.33416 
   50100   0.65546296    296.79696    29.155736 
   50200   0.65274516     296.9936    38.586697 
   50300   0.65023153     297.5254    110.83715 
   50400   0.64846257    298.63067    30.968265 
   50500   0.64709232    297.61428   -39.143563 
   50600   0.64585367    297.67711    13.065357 
   50700   0.64466935    297.90007    96.749921 
   50800   0.64387749    297.86615    -38.85168 
   50900   0.64323266    298.74069   -54.136954 
   51000   0.64289296    298.56414     9.974014 
   51100   0.64256739    298.59711    83.961141 
   51200      0.64214     297.6642    24.183324 
   51300   0.64172194     298.6713    19.976465 
   51400   0.64161078     298.5646    -6.991275 
   51500   0.64158152     297.8166     29.73697 
   51600   0.64201488     295.6649     19.31074 
   51700   0.64213035    298.19758  -0.27870651 
   51800   0.64175077    298.18921   -10.319813 
   51900   0.64089899     297.9788    48.958738 
   52000   0.64008301    297.77662   0.88595559 
   52100    0.6396621    296.02548   -48.243349 
   52200   0.63937969    298.28739   -9.3124068 
   52300   0.63903536    299.05648   -4.9482292 
   52400    0.6389088    296.75989    29.667092 
   52500   0.63897289    297.01345    84.446334 
   52600   0.63912962    298.59065    121.58457 
   52700   0.63944067    297.48429     37.33402 
   52800   0.63969987    297.08527   -52.058477 
   52900   0.63950306    297.86667   -37.772729 
   53000   0.63915032    298.96893    -3.622821 
   53100   0.63903181    296.51373   -3.3361001 
   53200   0.63866386    299.16618   -1.0054866 
   53300   0.63850623    299.35596    80.865698 
   53400   0.63826724    298.86159   -28.323785 
   53500   0.63806119    297.45021   -19.001102 
   53600   0.63790316    297.10081    135.87076 
   53700   0.63795401    298.34097    80.647848 
   53800   0.63850489    298.12786    21.784215 
   53900   0.63918816    298.95183    7.3882594 
   54000   0.63968391    298.31864    37.896667 
   54100   0.63957051    297.13518    49.957339 
   54200   0.63911215    298.33832    34.530983 
   54300   0.63854219    297.60987    22.383551 
   54400   0.63799755    298.93466   -75.795811 
   54500   0.63766379    298.76119   0.24384757 
   54600   0.63764229    296.66961   -37.756019 
   54700   0.63789396    298.60919   -176.49479 
   54800   0.63841367    297.68618     5.064689 
   54900   0.63880896    298.33191    156.62523 
   55000   0.63904209    296.25669    89.313156 
   55100   0.63873653    296.20089    6.4704351 
   55200   0.63832439    297.49548   -25.831669 
   55300   0.63802816    298.86475    18.852154 
   55400   0.63785423    297.43502    41.675429 
   55500   0.63762076    298.54056    23.671206 
   55600   0.63770637    298.72977    -71.08822 
   55700   0.63792943    297.92587   -63.911239 
   55800   0.63832488    296.15609   -155.16243 
   55900   0.63887301    297.06305   -15.579805 
   56000   0.63920494    298.19215     9.778067 
   56100   0.63916642    298.68909   -81.185921 
   56200   0.63898243    299.02718   -56.036417 
   56300   0.63881704    296.99842   -50.130071 
   56400   0.63863115    298.27312    98.438326 
   56500   0.63854123    298.33784    73.855361 
   56600   0.63819431    299.13994    62.660099 
   56700   0.63742095    299.53702    22.669673 
   56800   0.63705654    298.41272    103.15746 
   56900   0.63706538    297.59339    101.86102 
   57000   0.63743314    297.29781   -109.13746 
   57100   0.63798481    297.53187   -117.26721 
   57200    0.6382487     299.7816    11.477781 
   57300     0.638215    298.40567    55.849633 
   57400   0.63783025    297.48724     3.135683 
   57500   0.63733166    298.17226   -77.693452 
   57600   0.63736228    296.93089    28.274907 
   57700   0.63746784    297.49088    11.244951 
   57800   0.63763587    298.53937   -91.740267 
   57900   0.63789524    298.12793   -21.410762 
   58000   0.63788797    298.46798    55.170416 
   58100   0.63764062    297.88857    192.52718 
   58200   0.63712785    298.13918   -41.691159 
   58300   0.63668108    298.32347   -70.350487 
   58400   0.63616824    299.31317    3.2858524 
   58500   0.63574393    298.03136    26.093498 
   58600   0.63568121    297.25076    9.3632993 
   58700   0.63574821    297.65688   -15.309461 
   58800   0.63624323    298.35844    -34.45637 
   58900   0.63684626    298.03309   -112.24279 
   59000    0.6372026    296.82997   -44.692255 
   59100   0.63741029    296.89366    24.813584 
   59200   0.63766829    299.31186   -71.744686 
   59300   0.63808262     298.8055   -85.746106 
   59400   0.63851848    297.14374    13.594157 
   59500    0.6389051    296.23708   -49.667834 
   59600   0.63926355    296.80175   -75.699592 
   59700   0.63963764    298.74352    194.55309 
   59800   0.63944565    297.35675    217.38988 
   59900   0.63868653     298.9847    48.591814 
   60000   0.63801189    297.57281   -79.799879 
   60100   0.63776469    297.95886   -106.85806 
   60200   0.63787478    297.45349    10.463446 
   60300   0.63810816    297.05287   -80.885094 
   60400   0.63837775    297.80566   -56.671516 
   60500   0.63859519    299.83217   -131.55805 
   60600   0.63901886    296.97211   -30.417564 
   60700   0.63922095    298.03828    49.072805 
   60800   0.63917441    297.93514    123.28178 
   60900   0.63882896    297.65058   -12.484903 
   61000   0.63840906    298.89277    34.677424 
   61100   0.63778369    298.75992    98.594846 
   61200   0.63718195    298.70157    139.54685 
   61300   0.63655181    298.58987   -10.991675 
   61400   0.63585823    297.90182   -83.658108 
   61500    0.6357818    296.81968   -85.875921 
   61600   0.63600481    297.44737   -99.657818 
   61700   0.63656926     298.9845   -50.543919 
   61800   0.63735427    298.02421   -63.082955 
   61900   0.63792944    298.15202    -106.6808 
   62000   0.63795285    297.30727   -70.862851 
   62100   0.63777861    296.84103    36.664279 
   62200   0.63802365    297.05412     7.376746 
   62300    0.6385353    297.36637   -55.169217 
   62400   0.63897818    297.52034    56.552073 
   62500   0.63919913    297.68269    40.987688 
   62600   0.63939146    297.61408    91.934087 
   62700   0.63955609    298.08108    99.230967 
   62800   0.64015212    297.46837     127.9876 
   62900   0.64069804    297.34646    51.840738 
   63000   0.64090017     299.1925   -12.718204 
   63100   0.64061583    300.25862   -30.325398 
   63200   0.63976444    297.69255    1.6729994 
   63300   0.63902248    297.76861    40.867763 
   63400   0.63839636    297.60188   -93.606728 
   63500    0.6385326    298.60094   -129.58173 
   63600   0.63887999    299.42604       32.718 
   63700   0.63924143    297.67579    105.39999 
   63800   0.63950715    299.04446    -51.26565 
   63900   0.63976848    297.37668   -85.010508 
   64000   0.63986465    296.81758    9.8733912 
   64100   0.63968678     299.1163    35.359091 
   64200   0.63942314    299.36359    114.74445 
   64300    0.6388341    298.58205    5.9869942 
   64400   0.63803411    297.53347    -35.12763 
   64500   0.63748669    297.15525    19.946453 
   64600   0.63740979    297.71293    28.979319 
   64700   0.63750173    298.84076   -65.558505 
   64800   0.63767038      299.454    53.872789 
   64900   0.63815926    298.15631   -27.369985 
   65000   0.63878068    296.97242    30.057446 
   65100   0.63914671    299.61702    27.859951 
   65200    0.6393727    300.41346    29.669252 
   65300   0.63932451    297.65832    18.250816 
   65400   0.63905817    297.75177     35.02283 
   65500   0.63901545     298.8831    32.917552 
   65600   0.63896647    298.52399     126.8782 
   65700   0.63879264    298.73557     174.0475 
   65800   0.63828383    297.96027    9.8936882 
   65900   0.63768889    298.33416   -32.481166 
   66000   0.63725427    297.37469    14.297877 
   66100   0.63698031    295.87678   -37.686128 
   66200   0.63694952    297.73464    -53.35076 
   66300   0.63697024    298.55521   -98.189454 
   66400   0.63707951    298.89137   -38.319461 
   66500   0.63726299     298.5972    23.432704 
   66600   0.63761447    297.16435   -87.013284 
   66700   0.63799285    297.54904   -88.994076 
   66800   0.63840301     297.3328    86.883907 
   66900   0.63869052    298.75942    173.73676 
   67000   0.63886975    296.81963    160.34655 
   67100   0.63900479    296.97508    14.910549 
   67200   0.63897496    296.93843   -84.744785 
   67300   0.63918468    299.41829   -26.483339 
   67400    0.6395251    298.95157    66.112109 
   67500    0.6398926    298.84473   -62.314863 
   67600   0.64027078    298.02845   -154.03697 
   67700   0.64059394    297.05091   -11.331177 
   67800   0.64060712    296.81791    99.707709 
   67900   0.64024993      299.354   -10.518433 
   68000   0.63957699    297.92862   -102.08103 
   68100   0.63889826    296.53738   -77.570026 
   68200   0.63841481    297.17118  -0.42300276 
   68300   0.63833644    297.69188    4.2510807 
   68400   0.63835434    297.24168     11.37119 
   68500   0.63839528     298.2508   -82.650134 
   68600   0.63850959    297.68288    78.783767 
   68700   0.63901602    297.98885    103.99813 
   68800   0.63968197    297.38754   -128.72714 
   68900   0.64049625    298.57378   -137.84888 
   69000   0.64099974    298.83945   -63.356221 
   69100   0.64120557    298.11001   -18.574567 
   69200   0.64076878    297.78291    12.847153 
   69300   0.63995855    298.30072   -51.405047 
   69400   0.63916622    297.76915   -147.98525 
   69500   0.63838176    298.87461    134.02321 
   69600   0.63787808    297.21783    202.35399 
   69700   0.63741705    296.69438   -48.788465 
   69800   0.63737612    296.55669   -23.714203 
   69900   0.63783339    296.74379    146.40027 
   70000   0.63855888    296.86532    90.140074 
   70100   0.63898844    298.58334    6.5210547 
   70200   0.63912811    297.80836   -14.291553 
   70300   0.63924158    298.28209     95.78031 
   70400   0.63968341    297.86864    7.9559056 
   70500   0.63998903    297.83294    -56.43684 
   70600    0.6399074    298.67418   -35.805041 
   70700   0.63982922    297.70524   -21.777194 
   70800   0.63963656    299.02504   -55.631829 
   70900   0.63967759    298.35079   -20.244184 
   71000    0.6400133    297.51784    75.714943 
   71100    0.6402472    298.44276    19.027497 
   71200   0.64048993    297.83972    61.651376 
   71300   0.64064514    299.00832    57.613686 
   71400    0.6411708    299.42409    20.988836 
   71500   0.64179699     299.0332    50.536516 
   71600   0.64214945    298.94847    4.5110703 
   71700   0.64218064    297.28721    9.1051798 
   71800   0.64192588    297.35232   -29.679281 
   71900   0.64169371    296.61922   -78.549141 
   72000   0.64149556     297.9734    85.114007 
   72100   0.64130058    299.55452   -91.349593 
   72200   0.64164605    299.14685   -51.658448 
   72300   0.64188561    296.79303   -32.692593 
   72400   0.64189164    297.77735   -78.563863 
   72500     0.641992    295.70416   -121.65986 
   72600   0.64222858    295.84156    109.71669 
   72700   0.64226996    297.32951    66.972808 
   72800   0.64234537    298.45145    9.5132094 
   72900   0.64242381    298.77212   -18.136702 
   73000   0.64244437    298.45015   -32.965578 
   73100   0.64240437     296.6294     6.063388 
   73200    0.6418423    297.48974   -95.012165 
   73300   0.64137981    297.48907    -140.6434 
   73400   0.64108337    299.23219   -23.225648 
   73500   0.64104172     298.5556   -40.069024 
   73600   0.64138015    298.85952   -183.72957 
   73700    0.6419735    298.02096   -94.527371 
   73800   0.64256032    298.67198    32.977952 
   73900   0.64300236    298.16786    104.56375 
   74000   0.64330154    297.75476    79.938451 
   74100   0.64348028    297.54924    72.013564 
   74200   0.64312742    298.17922   -65.808437 
   74300   0.64251373    298.04933   -51.006821 
   74400    0.6416065    297.62987    33.327236 
   74500   0.64052254    297.72351   -67.721163 
   74600   0.64011217    297.89749    -72.40743 
   74700   0.64018235    297.92712   -62.754679 
   74800   0.64019933    299.07879   -132.55087 
   74900   0.64040159    297.49791   -113.18139 
   75000   0.64063233    297.66858   -67.215187 
   75100    0.6413007    298.75152    30.581642 
   75200   0.64213872    298.08467      46.0074 
   75300   0.64289583    298.05221    -45.03017 
   75400   0.64333486    297.12146   -93.313733 
   75500   0.64334225    297.51102   -19.087856 
   75600   0.64300498    298.84234    17.838117 
   75700   0.64292524    297.98284   -94.609474 
   75800   0.64270949     297.6871    15.379564 
   75900   0.64240746    297.76111   -71.768188 
   76000   0.64224084    299.16789   -170.53665 
   76100   0.64222301    298.61561   -35.290889 
   76200    0.6420135    297.68042    65.682186 
   76300   0.64167797    296.66449   -30.122066 
   76400   0.64116524    296.45075     12.12615 
   76500   0.64056314     297.6551    56.002251 
   76600   0.64023338    298.52077   -95.224021 
   76700    0.6402187    298.61574   -149.38683 
   76800   0.64070071    297.88934    88.206363 
   76900   0.64091586    297.82066   -11.207283 
   77000   0.64121132    296.62879     18.15054 
   77100   0.64106956    299.05255   -0.1398606 
   77200     0.640635    298.92656   -122.66735 
   77300   0.64043022    297.19925   -53.955369 
   77400   0.64015208    297.90684    4.7857893 
   77500   0.64010938     299.3949    68.599329 
   77600   0.64003482    298.81048     11.03641 
   77700   0.64005934     298.2166    -92.02246 
   77800   0.64034606    297.49485   -1.2305037 
   77900   0.64095898    297.35894    87.098029 
   78000   0.64167951    297.92715    75.166836 
   78100   0.64231972    297.16741    101.68014 
   78200    0.6425606    296.29079    165.77619 
   78300   0.64245575    296.86865    112.86881 
   78400    0.6421944    299.19571   -17.152811 
   78500   0.64181956    297.70767   -1.1242649 
   78600   0.64131607    298.28792   -22.375917 
   78700   0.64124412     297.4085    29.149771 
   78800   0.64127135    296.99969    33.815591 
   78900   0.64131045    297.04154    51.121278 
   79000   0.64127629    298.02916   -43.162215 
   79100   0.64098799    299.50285    -168.9697 
   79200   0.64078206      297.938    74.485009 
   79300   0.64042462    296.19449    103.54216 
   79400   0.64004665    297.14792    12.464258 
   79500   0.63992353    298.31909   -44.487823 
   79600   0.64036183    298.59519    134.03891 
   79700   0.64075939    297.46082    22.231169 
   79800   0.64102473    297.26144   -40.098389 
   79900   0.64128621    297.06723   -35.188402 
   80000   0.64176289    297.33379    95.953153 
   80100   0.64222021    298.29082    69.521695 
   80200   0.64234041    298.89045    -105.0454 
   80300   0.64226638      298.272   -100.71355 
   80400   0.64164545    297.72843   -33.626341 
   80500   0.64131382    296.38607     58.29605 
   80600   0.64109929    297.76868   -30.603029 
   80700    0.6411738    297.72079   -52.479719 
   80800    0.6414748      299.808   -67.852334 
   80900   0.64202114    298.64719   -9.3150245 
   81000   0.64226915     298.6135    30.430517 
   81100   0.64212596    298.25148    67.857972 
   81200   0.64161392    298.03346   -4.2029248 
   81300   0.64123925    297.41014    66.489218 
   81400   0.64077273     300.0675    80.288254 
   81500    0.6402863     299.2387   -108.14832 
   81600   0.64026326    298.40687   -277.41592 
   81700   0.64085019    297.84223   -87.158542 
   81800   0.64169846    298.31668    76.535872 
   81900   0.64245828    298.65939   -21.893041 
   82000   0.64301528    297.57358   -175.23744 
   82100   0.64337362     297.8241    65.866605 
   82200   0.64376678    297.47233    181.27249 
   82300   0.64400639    297.34327    -6.581438 
   82400   0.64436081    297.59131   -168.28103 
   82500   0.64459875     298.2737   -113.13086 
   82600   0.64466822    299.13252    117.77368 
   82700    0.6445843    298.49325     61.14715 
   82800   0.64419178    297.77035   -181.49993 
   82900   0.64384854    297.82444   -173.15843 
   83000   0.64369092    297.27614    34.557506 
   83100   0.64339905    298.02801   -89.681107 
   83200    0.6433231    298.31344   -79.651537 
   83300   0.64334871    299.42415   -116.68274 
   83400   0.64381943    296.98165   -59.736382 
   83500   0.64455649    297.06873    63.232411 
   83600   0.64474343    298.26498     52.78378 
   83700   0.64452206    298.26323   -165.11923 
   83800    0.6442562     298.7701    -131.3874 
   83900   0.64386881    297.37567    77.168286 
   84000   0.64328566    297.57274    80.156678 
   84100    0.6428525    298.93111    62.901747 
   84200   0.64247496     298.9929   -17.356241 
   84300    0.6425943    299.07956   -17.437145 
   84400   0.64302999    297.41515    99.375061 
   84500   0.64376547    298.58786     17.26489 
   84600   0.64449625    298.10206   -203.73872 
   84700   0.64509964    296.37827    54.833689 
   84800   0.64560725    296.43575     202.7924 
   84900   0.64587214     297.0596    46.886195 
   85000   0.64582085    297.49816   -86.467529 
   85100   0.64534612    297.94081    10.491047 
   85200    0.6445516    298.88275    136.25592 
   85300   0.64370228    299.07717    -28.81318 
   85400    0.6431997    297.89024   -131.97484 
   85500   0.64289509    297.98713   -96.564837 
   85600   0.64303514    297.35376    83.761879 
   85700   0.64329644     298.5055    62.405654 
   85800   0.64331188    299.17628   -112.62544 
   85900   0.64321076    298.58503   -118.12602 
   86000    0.6432563    297.38586    20.179245 
   86100     0.643543      298.089    190.12037 
   86200   0.64347484    297.99526    80.305528 
   86300   0.64281381    299.05077    39.881728 
   86400   0.64239642    297.33722    141.58203 
   86500   0.64221697    297.33852    23.021891 
   86600   0.64208317    298.03891    24.452016 
   86700   0.64218516    299.42053    82.444992 
   86800   0.64249308    299.14695     90.92952 
   86900   0.64273673    297.65497    123.17577 
   87000   0.64279803     298.4341     36.36692 
   87100   0.64277152     298.1332   -153.98792 
   87200   0.64284484    298.21361   -90.692232 
   87300   0.64298074    298.16618     12.74343 
   87400   0.64308838    296.89116   -29.635352 
   87500   0.64326894    297.49985   -25.881477 
   87600   0.64336428    297.90353     27.04049 
   87700   0.64354677     298.9056   -42.028187 
   87800   0.64387128    298.40789   -13.027511 
   87900   0.64391634    298.26783   -10.628347 
   88000   0.64388728    297.64271     22.05671 
   88100   0.64357925    297.69365     17.84602 
   88200   0.64326889    297.75889   -23.112066 
   88300   0.64332888    297.71919   -131.49299 
   88400   0.64354412     298.4671   -9.7875873 
   88500   0.64389035    298.40033    47.849633 
   88600   0.64426269    298.90244   -69.985781 
   88700   0.64461202    298.37673   -45.035667 
   88800   0.64492679    297.85143   -170.28055 
   88900   0.64544789    297.85684   -87.399264 
   89000    0.6458329    299.43359    134.52236 
   89100   0.64582285    298.03985    147.34327 
   89200   0.64537435    296.87395    -106.6867 
   89300   0.64475723    297.09644   -79.813587 
   89400   0.64424841    298.00332    -45.61642 
   89500   0.64403887     298.8306    27.079336 
   89600   0.64388764    299.17714   -31.056405 
   89700   0.64334586    299.25904   -101.17444 
   89800   0.64273407    299.27117    49.361827 
   89900   0.64216057    298.69727   -34.782568 
   90000   0.64177468    297.34793   -168.12001 
   90100   0.64191437    297.81573   -3.0552482 
   90200   0.64229648    298.83051    10.635134 
   90300   0.64279192    298.86732    -103.4793 
   90400   0.64336531    296.76399   -74.589807 
   90500   0.64385224    297.17384   -7.1169317 
   90600   0.64424792    297.48168   -45.923488 
   90700   0.64468495    298.41679    7.1790288 
   90800    0.6448194    298.28168   -142.60656 
   90900   0.64497077    296.66766   -116.48212 
   91000   0.64510803    296.79916    118.83955 
   91100   0.64488712    298.24951    57.777471 
   91200   0.64459023    298.88665    -71.98371 
   91300   0.64444344    297.89959    27.517387 
   91400    0.6443916    296.97623    46.250509 
   91500   0.64445356    296.18137    41.281634 
   91600   0.64455618    297.78059    43.928634 
   91700   0.64476974    299.51557   -110.79225 
   91800   0.64519111    298.58271    -169.9042 
   91900   0.64587811    297.61801    101.59393 
   92000    0.6464688    297.04172    70.999365 
   92100    0.6468207    296.69204   -102.76691 
   92200   0.64673594    298.27519   -75.478169 
   92300   0.64646439    298.95868      37.4474 
   92400   0.64604992    297.15675     134.8623 
   92500   0.64570468    296.30673   -125.46445 
   92600   0.64576797    298.27691   -119.65056 
   92700   0.64624846    298.16517    23.219503 
   92800   0.64654885    298.73149    130.11852 
   92900   0.64667823    297.97196    -7.360528 
   93000   0.64694114    297.98992   -112.50768 
   93100   0.64722793    298.37629    72.727419 
   93200   0.64716354    298.60036    114.97768 
   93300   0.64672532    300.19074   -14.735079 
   93400   0.64616464     299.4487   -148.78552 
   93500    0.6458795     298.5988   -77.476319 
   93600   0.64592525    299.08372    62.116668 
   93700   0.64618266    296.82042    78.277493 
   93800   0.64635477    297.94635   -42.568743 
   93900   0.64638272    299.62544   -149.10858 
   94000   0.64616151    298.61049   -63.629569 
   94100   0.64565257    298.53541    65.074472 
   94200   0.64515299    297.42257    58.138352 
   94300   0.64489704    296.20083   -5.4089564 
   94400   0.64484273    297.85313   -37.889282 
   94500   0.64506994    299.01672    82.592522 
   94600   0.64527046    299.35879    130.87899 
   94700     0.645402    298.27291   -45.009902 
   94800   0.64564892    298.09088   -46.361762 
   94900   0.64595359    297.93265    48.084019 
   95000    0.6462298    298.29276    22.546554 
   95100   0.64623797    299.61237   -78.810131 
   95200   0.64629515    297.22343   -26.082844 
   95300   0.64603461    297.51856    33.232995 
   95400   0.64553118    297.67789    144.30391 
   95500   0.64492256    299.06558    7.8467249 
   95600   0.64436343    299.47177   -99.280552 
   95700   0.64386891    299.01657   -110.80863 
   95800   0.64331318    298.05049    16.624535 
   95900    0.6429806    297.12304    117.65318 
   96000   0.64277084    298.57273    22.101718 
   96100   0.64287657    298.87473   -79.348281 
   96200   0.64324652    299.34905   -16.368733 
   96300   0.64377456     299.1856   -90.613069 
   96400   0.64417477    298.74032   -19.145108 
   96500   0.64457632    298.09276   -33.719212 
   96600   0.64498792    297.39398    88.432405 
   96700   0.64517144    297.00754    104.85231 
   96800   0.64518166    298.11487   -55.773356 
   96900   0.64533432    298.61548   -67.569125 
   97000    0.6455736     299.3395   -32.163868 
   97100   0.64590498     297.2138    146.71267 
   97200   0.64600899    298.64833    126.24115 
   97300   0.64623352    297.42365    50.766151 
   97400   0.64638768    296.94544    69.406412 
   97500   0.64656659    298.29373    142.15683 
   97600   0.64649149    299.22547    74.812725 
   97700    0.6463386    297.18647   -29.734339 
   97800   0.64630864    298.04218    25.000308 
   97900   0.64647092    298.20425   -7.3505448 
   98000   0.64659771    298.02662   -35.281486 
   98100   0.64654301    297.64954    2.6811567 
   98200   0.64596771    297.87024   -8.9379836 
   98300   0.64541286    298.60797    77.192666 
   98400   0.64524342    296.62934    123.39115 
   98500   0.64537067     298.0449   -70.086567 
   98600   0.64580654    298.37147    45.808989 
   98700   0.64614389    298.34724    52.516413 
   98800   0.64636271    298.41993    13.969371 
   98900   0.64620469    298.40645   -14.388627 
   99000   0.64640069    297.66869    23.338615 
   99100   0.64666381    298.26775   -17.668659 
   99200   0.64679063    297.65258     2.220624 
   99300   0.64672013    298.85336   -7.5187602 
   99400   0.64654444    297.86773    53.447844 
   99500   0.64654184    297.09031    105.56203 
   99600   0.64668605    296.10344    94.290562 
   99700   0.64688354    297.99405     84.75634 
   99800   0.64682022    298.34118    68.464371 
   99900   0.64646476    299.17483    9.7862668 
  100000   0.64584305    296.80664   -50.398601 
  100100   0.64564394    296.76343    109.66719 
  100200   0.64584782    296.60688    179.16584 
  100300   0.64615031    297.46177    21.007964 
  100400   0.64628345    297.31839   -50.255049 
  100500   0.64614757    298.29632   -70.354516 
  100600    0.6459713    296.32049   -11.308476 
  100700   0.64573903     297.0227    24.583655 
  100800   0.64548535     297.9869     46.48829 
  100900   0.64524521    297.90433   -109.08718 
  101000   0.64510756    298.42024    -87.08432 
  101100   0.64485132    297.94758   -79.046653 
  101200   0.64446625    297.82794   -24.466738 
  101300   0.64452498    296.72749   -96.651536 
  101400   0.64486005    296.17312   -56.050241 
  101500   0.64557579    298.61997    44.848422 
  101600   0.64642686    298.20532    205.63779 
  101700   0.64660254     298.3905    -8.524545 
  101800   0.64642282    298.22073   -80.007682 
  101900   0.64604569    296.67352    116.65999 
  102000   0.64559144    298.02978    145.67236 
  102100   0.64528263    299.15873   -107.10687 
  102200   0.64524449    299.28065   -94.201525 
  102300    0.6452059    298.76698   -66.237045 
  102400   0.64540376    298.37256   -25.803005 
  102500   0.64543534    297.01385    76.487244 
  102600   0.64503079    297.35745    -32.37041 
  102700   0.64451893    298.67593   -133.38338 
  102800   0.64426267     298.1328   -76.063135 
  102900   0.64413975    298.12469      21.1363 
  103000   0.64424368    299.35552   -137.91578 
  103100   0.64493878     297.6952   -44.199055 
  103200   0.64585717    297.61038   -25.277685 
  103300    0.6468034    297.97093    135.36882 
  103400   0.64695561    299.13674    87.719175 
  103500   0.64621973    298.03936   -70.355237 
  103600   0.64510362    296.24397   -80.178066 
  103700   0.64406992    297.47929   -5.5593623 
  103800   0.64378719    297.89156    48.212712 
  103900   0.64389521     297.8183   -98.735081 
  104000   0.64419103    299.47687   -76.712146 
  104100   0.64461471    298.15889  -0.39916513 
  104200   0.64519138    297.81046    22.201268 
  104300   0.64568485    298.86534   -10.833733 
  104400   0.64613212     297.8758     183.4215 
  104500   0.64589322    298.31476   -57.897116 
  104600   0.64554044    299.61849    -23.02704 
  104700   0.64499918    298.67577    24.687487 
  104800   0.64425827    297.39887    29.390715 
  104900   0.64387698    296.63717   -131.12038 
  105000   0.64406878     298.4453     -11.5641 
  105100   0.64473948    297.95771    134.33233 
  105200   0.64553149    298.73322  -0.70251501 
  105300   0.64621816    298.95655   -7.7697763 
  105400    0.6466982    298.00738    104.18552 
  105500   0.64695722    297.39593    23.434291 
  105600   0.64685838    298.95791    56.388741 
  105700   0.64632832    297.86249    69.246837 
  105800   0.64557347    297.50273   -21.637833 
  105900   0.64484003    298.08331   -6.0972175 
  106000   0.64449737    298.09592    11.844312 
  106100   0.64450526    297.70939    44.297961 
  106200   0.64494225    297.45226    126.34538 
  106300   0.64543718    298.23675    49.995734 
  106400   0.64581937     298.6871   -178.53031 
  106500   0.64643746    298.41832    79.371223 
  106600     0.646788    297.35989    51.610495 
  106700   0.64691702    297.35693   -41.130773 
  106800   0.64704818    295.53236    121.31608 
  106900   0.64694674    297.52666    104.15611 
  107000   0.64695954    297.94038   -34.341166 
  107100   0.64695393    297.62208   -70.295019 
  107200   0.64668187    298.43114     52.59168 
  107300   0.64603499    300.10468   -16.871164 
  107400    0.6454502    298.69127    81.857104 
  107500   0.64533415    297.86164      12.9687 
  107600   0.64555295    297.31234    36.015043 
  107700   0.64606635    298.66391    15.042561 
  107800   0.64661256    299.54687    38.971074 
  107900   0.64702099    299.62643    45.585841 
  108000   0.64741915    297.31621    33.048113 
  108100   0.64750438    297.57073   -58.777806 
  108200    0.6476065    298.29895   -38.931355 
  108300   0.64784493     298.7943   -9.3498513 
  108400   0.64795603     298.3988     24.01631 
  108500   0.64802229    297.11702   -18.827914 
  108600   0.64804164    297.56871   -28.147688 
  108700   0.64820184    298.31911   -68.603615 
  108800   0.64886917    297.91448    150.02797 
  108900   0.64943832    296.43459    119.90706 
  109000   0.64955982    297.80558    86.614104 
  109100    0.6493968    299.24527    86.010783 
  109200   0.64896736     297.9504    -29.06742 
  109300    0.6484065    296.80644    108.30695 
  109400   0.64792199    296.85008    56.378869 
  109500   0.64748253    297.32915   -197.24829 
  109600   0.64715933    298.49255   -169.24242 
  109700   0.64702191    297.70832    21.489102 
  109800   0.64707665    297.13347   -5.2862556 
  109900   0.64720771    297.39691    -146.1854 
  110000   0.64755173    297.36208   -131.08124 
  110100   0.64806633    296.85931    90.459691 
  110200   0.64816457    297.99925    77.252883 
  110300    0.6480646    298.19249   -2.3002629 
  110400   0.64790658    298.17918   -70.983197 
  110500   0.64767676    296.02472  -0.39045625 
  110600   0.64719078    297.71813    6.6821948 
  110700   0.64687575    298.47272   -124.06858 
  110800     0.647077    298.10678   -105.81574 
  110900   0.64728217    297.13476   -72.409268 
  111000   0.64772181    296.01696   -53.412049 
  111100   0.64804078    297.34775   -163.23392 
  111200   0.64836189    299.58132   -121.67887 
  111300   0.64839083    300.80256   -131.63035 
  111400   0.64829889    298.74702    -17.16827 
  111500   0.64811404     297.3007   -57.153869 
  111600   0.64784988    297.56081     -103.086 
  111700   0.64782677    297.51205   -8.2929556 
  111800   0.64780123     299.4734    1.9612589 
  111900   0.64799304    298.57665    76.863308 
  112000   0.64830276    296.73008    197.16312 
  112100   0.64816646    297.56479   -30.247831 
  112200   0.64806399    298.23864   -156.11016 
  112300    0.6479773    297.95531   -143.77945 
  112400   0.64809286    297.21725     39.68968 
  112500   0.64793106    298.81761   -2.1825315 
  112600   0.64772921    299.02489    -16.20248 
  112700   0.64748953    300.08113   -2.1682922 
  112800   0.64698967    298.23339    37.186554 
  112900   0.64647224    297.07861   -150.82048 
  113000   0.64639297    298.69054   -108.54377 
  113100   0.64670126    298.72655    39.563785 
  113200   0.64721296    298.92461   -28.153203 
  113300   0.64782338    298.45114    28.040208 
  113400    0.6481358    297.42032    116.31341 
  113500   0.64796694     297.0067    35.027008 
  113600   0.64779054    297.76999   -27.192591 
  113700    0.6475107     298.8976    24.021149 
  113800    0.6469025    299.24551   -36.875083 
  113900   0.64634226    298.74718    30.900902 
  114000   0.64624493    298.44993   -61.255037 
  114100   0.64674607    297.69766    -82.11312 
  114200   0.64737881    297.59296    91.645175 
  114300    0.6479751    298.64505    210.02229 
  114400   0.64843022    298.18864    26.149783 
  114500   0.64878044    298.34818    53.448098 
  114600   0.64903275    296.67904     107.0512 
  114700   0.64910749    298.50925    -26.88325 
  114800   0.64920148     298.1754   -72.675723 
  114900   0.64910367     299.2972   -23.483666 
  115000   0.64903493    297.53574    12.999035 
  115100   0.64887482    298.07034    32.595775 
  115200   0.64836618    297.86189   -10.898604 
  115300   0.64794065    298.00777   -20.428059 
  115400   0.64759759    299.14713   -145.83872 
  115500   0.64776175    297.46109   -57.581659 
  115600   0.64838782    296.53083   -20.226874 
  115700   0.64929957    296.65698    97.644212 
  115800   0.65007853    298.44815   -76.281584 
  115900   0.65060922    298.95737   -61.294267 
  116000   0.65048646     298.8559    39.170609 
  116100   0.64980092    296.85774   -6.1092857 
  116200   0.64903145    296.16297   -62.328113 
  116300    0.6487021    297.14261   -105.01656 
  116400   0.64893798    297.56619   -11.846912 
  116500   0.64948339    299.46934    55.242357 
  116600   0.65014483    299.04836    11.932772 
  116700   0.65071099    298.35957    -60.20771 
  116800   0.65086255    296.83322    -56.91334 
  116900   0.65088406    297.21868    129.05574 
  117000   0.65098256    298.20626    48.386445 
  117100   0.65098918    298.08381   -138.51202 
  117200   0.65074657    297.91293   -23.452754 
  117300   0.65035582    298.08148    80.105577 
  117400   0.64970704     296.6712   -13.137633 
  117500   0.64915582     298.9806    -125.6232 
  117600   0.64880422    299.37189   -94.940596 
  117700   0.64829784    299.38254    27.188373 
  117800    0.6477964    297.05735   -46.914375 
  117900    0.6474728    296.65815     -56.0764 
  118000   0.64755018    298.83889   -20.452593 
  118100   0.64795336    298.74896    23.143051 
  118200     0.648624    299.72018    20.206037 
  118300   0.64944266    296.81261   -8.5894947 
  118400   0.65008962    297.90088   -45.215972 
  118500   0.65053971    297.83069     26.97432 
  118600   0.65076094     297.4766   -63.880023 
  118700   0.65078333     299.5219    16.435849 
  118800   0.65079741    299.41374     -21.4799 
  118900   0.65056675    297.22648    -171.8304 
  119000   0.65040883    296.83137   -37.137865 
  119100   0.65023179    297.93216    143.40354 
  119200   0.64991982    298.89774  -0.16106718 
  119300   0.64954869    298.98653   -74.815029 
  119400   0.64923565    298.14094   -27.996326 
  119500   0.64921849    297.31982    63.535206 
  119600   0.64941248    298.51873    118.96538 
  119700   0.64943492    298.32766   -51.496352 
  119800   0.64925857    298.25092     29.82024 
  119900   0.64888215    298.36022   -40.052007 
  120000   0.64880713    296.76301   -28.822606 
  120100   0.64886985    297.56018    11.577647 
  120200   0.64884024     297.9435   -10.232849 
  120300    0.6486855    297.80429   -6.1523804 
  120400   0.64841671    297.69621   -11.842712 
  120500   0.64815497    296.79989   -86.255178 
  120600   0.64813633    296.03138   -42.184937 
  120700   0.64861106    297.13136    135.18693 
  120800   0.64932555    299.05428     44.69276 
  120900   0.64992262    298.76198   -19.705177 
  121000   0.65020424    299.22097   -13.097111 
  121100   0.65039734    297.37359     95.27938 
  121200   0.65054147    296.94212    179.38605 
  121300   0.65032461    298.70504   -46.634598 
  121400   0.64980081    298.52972   -51.721733 
  121500   0.64890276    298.36834   -58.656804 
  121600   0.64822069    298.05754   -2.0159056 
  121700   0.64790827    297.76854    89.005693 
  121800   0.64745798    298.21815    -109.9753 
  121900   0.64690208    297.59534   -177.34135 
  122000   0.64665301    297.12186    124.60474 
  122100   0.64680728     297.7279     61.54877 
  122200   0.64745133     298.1832   -71.252045 
  122300   0.64781102    298.88836   -22.237595 
  122400   0.64798958    298.34586    131.36048 
  122500   0.64794653    297.97453    63.028911 
  122600   0.64776169    297.79642   -69.284577 
  122700   0.64776628      298.347   -17.150846 
  122800   0.64768357    297.98759    141.61282 
  122900   0.64756825    298.88916    111.25485 
  123000   0.64800463    298.01296    3.8029152 
  123100   0.64836867    297.18342   -103.11584 
  123200   0.64853088    298.03862   -3.2804136 
  123300   0.64890357    298.83399     180.5784 
  123400   0.64900815    299.29559    88.993391 
  123500    0.6487571    297.46627    9.3699632 
  123600   0.64861929    296.98296   -65.173446 
  123700   0.64878736    297.42688   -84.386597 
  123800   0.64900252    298.86449     107.4677 
  123900   0.64937554    297.51121    139.30747 
  124000   0.64961939    297.86602     11.85299 
  124100    0.6498855    297.06967   -105.85172 
  124200   0.65000905    297.03353    38.920156 
  124300   0.64998452    296.87197    121.02619 
  124400   0.64995198    297.41034   -3.8292341 
  124500   0.64987035    298.19002   -36.513628 
  124600   0.64968062    298.29393    102.68443 
  124700   0.64939621    299.07461    160.19963 
  124800    0.6488187    297.91886   -145.95048 
  124900   0.64850004    297.79397    19.534466 
  125000   0.64828619    298.59621     85.21023 
  125100   0.64848602    298.59365     2.939114 
  125200   0.64891956    296.55393    97.800963 
  125300    0.6493652     297.6597    50.696672 
  125400   0.64954423    297.91819   -116.63653 
  125500   0.64969451    297.78221   -42.072557 
  125600   0.65002997    297.50239    34.077758 
  125700   0.65040991    298.11251    4.5623128 
  125800   0.65093904    296.77879   -13.718587 
  125900   0.65107402    296.77324   -43.706444 
  126000   0.65085055    297.20563   -16.869349 
  126100   0.65042439    299.58018    51.129141 
  126200    0.6502829    297.68351   -17.036736 
  126300   0.65042921    297.27995   -35.494827 
  126400   0.65056169    298.56212    45.517868 
  126500   0.65051122    298.89822   -22.286376 
  126600   0.65029029    298.94714   -2.1664624 
  126700   0.64987709    298.17519   -60.817179 
  126800   0.64949363    298.78647   -20.396092 
  126900   0.64945387    298.28373    -153.6272 
  127000   0.64982184    298.49287    -88.65186 
  127100   0.65035494     299.1474    -40.51554 
  127200   0.65062618    298.52687   -40.530162 
  127300   0.65060035    296.65596   -42.669915 
  127400   0.65059531    297.44093    -31.97712 
  127500   0.65050838    299.01023   -33.730745 
  127600   0.65030193    298.56716    46.319842 
  127700   0.64997699    297.86354    34.016614 
  127800   0.64978377    296.75304   -22.698758 
  127900   0.64976566    297.44346   -15.877469 
  128000   0.64986276    297.86391   -3.7455929 
  128100   0.64985603    297.78304   -61.759443 
  128200   0.64964882    297.80069   -32.499874 
  128300   0.64952812    297.56154    14.784679 
  128400   0.64952507    298.35417   -41.381869 
  128500    0.6496353    298.26995   -99.755265 
  128600   0.64999567    298.20293    83.417933 
  128700    0.6504573    298.69928    83.628554 
  128800   0.65094105    298.08882   -54.306831 
  128900   0.65123829    298.43857   -82.714835 
  129000   0.65162951    297.61442    72.655334 
  129100   0.65185819    298.34576   -20.840147 
  129200   0.65159429    298.29088    63.230719 
  129300   0.65092816    298.92117   -101.56622 
  129400   0.65021141    297.41854    -167.4198 
  129500   0.64997277    296.07213    8.8040834 
  129600    0.6499167    297.94787   -17.025583 
  129700   0.65002682    297.25232   -57.319818 
  129800   0.64987346    298.55435    -27.80428 
  129900    0.6497059    297.95258   -31.750667 
  130000   0.64970945     296.7675   -73.327874 
  130100   0.64972424     296.7504    9.1361601 
  130200   0.64962177    297.78918   -47.789754 
  130300   0.64971471    298.00857   -49.065617 
  130400   0.65024091    296.96371   -24.716228 
  130500   0.65076447    298.74087   -16.564346 
  130600   0.65127373     298.2754    5.8902409 
  130700   0.65122177     298.8086    45.889501 
  130800   0.65077038    297.31494    85.358751 
  130900   0.65022465    297.13165    78.159594 
  131000   0.64970793    296.92956   -27.523269 
  131100   0.64909547    297.61549   -43.601624 
  131200   0.64866187    297.45798   -15.603858 
  131300   0.64845084    298.08499    78.777482 
  131400   0.64840498    298.04424    30.024167 
  131500   0.64866162    297.14516   -13.880288 
  131600   0.64896157    297.71231    108.85078 
  131700   0.64925474    297.52821    84.031563 
  131800   0.64966975    298.01979   -10.661735 
  131900   0.65024294    297.05881   -75.873723 
  132000   0.65075516    296.96648    65.798293 
  132100   0.65099829    298.49746    132.93756 
  132200   0.65125754    298.50324    75.069749 
  132300   0.65141512    298.47463    11.700448 
  132400   0.65106918    298.09673   -28.536521 
  132500   0.65040721    297.38554    106.74672 
  132600   0.64984214    297.28243    79.447221 
  132700   0.64967213    296.42646   -2.6565925 
  132800   0.64977385    298.61884   -184.04915 
  132900   0.65029913    298.81728   -50.548901 
  133000   0.65092975    297.92186    50.933438 
  133100   0.65139441    298.08633    39.236855 
  133200   0.65187461    297.06218   0.25973739 
  133300   0.65233743    297.90887   -40.013826 
  133400   0.65270152    299.32292    77.774144 
  133500   0.65250444    298.94203    44.165466 
  133600   0.65205887    298.57063   -61.593307 
  133700   0.65135803    297.66646   -93.892771 
  133800   0.65071707    297.95702    60.443096 
  133900   0.65029807    298.02794   -18.481752 
  134000   0.65026473    299.39938    33.772991 
  134100   0.65051386    297.37225   -24.348854 
  134200   0.65080546    297.83662   -57.742181 
  134300   0.65102513    298.04327    72.783695 
  134400   0.65122214    299.11619    84.191827 
  134500   0.65127445    298.12119   -80.217923 
  134600   0.65126523    298.83447    14.557266 
  134700   0.65124096    297.95391    28.556118 
  134800   0.65128268    297.56767    89.457077 
  134900   0.65124516     297.9808   -29.776735 
  135000    0.6511511    298.13617   -108.64139 
  135100   0.65104499    299.46111    32.483403 
  135200   0.65104977    298.86956    54.405288 
  135300   0.65105925     297.1006   -2.7331131 
  135400   0.65124294    298.13928    28.415372 
  135500   0.65143641    298.37081   -55.362365 
  135600   0.65153595    299.11286   -56.724675 
  135700   0.65138482    299.54709    33.394753 
  135800    0.6510148    299.26808   -57.374409 
  135900   0.65052734    298.67131   -33.470283 
  136000   0.65034215    297.26695   -101.03712 
  136100   0.65056342    297.53973   -95.549066 
  136200   0.65082656    298.87623   -75.115771 
  136300     0.651107    298.10647    78.881471 
  136400    0.6510405    296.87009   -16.248112 
  136500   0.65068992    296.54562   -42.309692 
  136600   0.65062136    297.26583   -44.549601 
  136700    0.6505331    296.98863   -72.608893 
  136800   0.65076475    298.72777    166.42071 
  136900   0.65103588     298.1466    187.80933 
  137000   0.65135201    296.94679   -10.822567 
  137100   0.65168576    295.95775   -123.23274 
  137200   0.65203024    298.65631    43.192556 
  137300   0.65216802    298.29312     164.9354 
  137400   0.65187561    299.12809    25.869729 
  137500   0.65140271     298.0803   -170.17831 
  137600    0.6510943      298.237   -105.63597 
  137700   0.65140426    296.94131    17.986768 
  137800   0.65179983    297.35879   -3.5778829 
  137900   0.65233588     300.0645   -64.420929 
  138000   0.65276836    299.19455    -34.65507 
  138100    0.6528345    297.89535    38.061336 
  138200   0.65233123     297.8268     22.27128 
  138300   0.65189444     296.7113   -77.503025 
  138400   0.65165512     297.0571   -175.54029 
  138500   0.65154888    298.49713   -60.258099 
  138600   0.65152974    299.04494    26.598233 
  138700   0.65153631    297.50549   -68.699305 
  138800   0.65199602    297.27944    -123.5405 
  138900   0.65264739    298.67049    18.787104 
  139000   0.65300101    299.70991   -16.887678 
  139100   0.65326353    297.84533     17.15408 
  139200   0.65308492    297.97127    85.749267 
  139300   0.65266958    296.03368   -38.580878 
  139400   0.65227589    296.91156    -178.7486 
  139500   0.65218164    296.51773    86.758226 
  139600   0.65201836    298.97193    40.793943 
  139700   0.65174553    299.50516    62.340131 
  139800   0.65149071    297.05871   -70.679785 
  139900   0.65146295    296.87536   -71.754105 
  140000   0.65144659    297.93143   -27.009976 
  140100   0.65147351    297.65883    67.508806 
  140200   0.65136725     298.1565    17.376441 
  140300   0.65099266    298.34353   -9.1499485 
  140400   0.65027487    298.34092    38.304517 
  140500   0.64931832    299.00868   -102.95338 
  140600   0.64853402    298.35131    21.221472 
  140700   0.64799035    296.76223    96.813444 
  140800   0.64783528     296.9435    -103.7892 
  140900   0.64822045    298.97557   -118.01152 
  141000   0.64887342    299.13344   -24.991221 
  141100   0.64927771    298.79792    32.866231 
  141200   0.64959462    298.59582    83.853784 
  141300   0.65007354    297.19134    -30.69836 
  141400   0.65053167    297.22882   -58.253866 
  141500   0.65084742     297.3204   -23.678027 
  141600   0.65102781    295.55151    130.23352 
  141700   0.65104633    296.54737   -50.998837 
  141800   0.65127264    297.80523   -57.511263 
  141900   0.65170585    298.06668    -8.886604 
  142000   0.65192562    297.30408    155.42768 
  142100   0.65186159     297.7331    205.84012 
  142200   0.65156927    297.79849   -3.9745961 
  142300    0.6516818    296.61897   -117.82881 
  142400   0.65182539    297.33131    31.972504 
  142500   0.65188743    298.64082     83.65919 
  142600   0.65177247    298.49442    76.393842 
  142700   0.65128718    297.32772    11.353887 
  142800    0.6505613    297.97978   -63.215566 
  142900   0.64997975    296.39727    -23.41133 
  143000   0.64950758     297.2762    -120.5653 
  143100   0.64953189    297.96412   -83.447303 
  143200    0.6498247    297.68367    32.769117 
  143300    0.6501958    296.62929     155.4167 
  143400   0.65038791    296.59175   -62.131221 
  143500   0.65075344    296.11366   -101.87293 
  143600   0.65105838    298.21873    75.811395 
  143700   0.65122811    297.35613    37.499654 
  143800   0.65127026    297.41281   -78.346708 
  143900   0.65126131    297.31641    28.396003 
  144000   0.65098376    296.13216   -81.863346 
  144100   0.65086231    296.07956   -148.13476 
  144200   0.65098241    298.09789    27.644585 
  144300   0.65118984     297.7275    225.60442 
  144400   0.65113528    297.91957    57.530326 
  144500   0.65107992    296.92352   -16.538716 
  144600   0.65096609    296.90182   -63.943547 
  144700    0.6512889    297.55204   -87.143934 
  144800   0.65161547    298.17924    25.254172 
  144900   0.65187323    300.31999    54.574428 
  145000   0.65237564    298.04408   -48.866398 
  145100   0.65287566    298.30465    78.243123 
  145200   0.65303024    298.03102   -15.186401 
  145300   0.65271635    297.83109   -97.655414 
  145400   0.65231633    298.53459    1.9443981 
  145500   0.65211259      298.764    61.855015 
  145600   0.65184333    298.79814   -47.379836 
  145700   0.65155379    298.84095    73.113986 
  145800   0.65123712    297.85467    35.948533 
  145900   0.65094494    297.02009   -149.55883 
  146000   0.65096896    297.32653   -1.8389542 
  146100   0.65119933    299.40105    129.94998 
  146200   0.65132277    298.53668   -48.909637 
  146300   0.65135314    298.46928   -69.964185 
  146400   0.65148504    298.17232   -56.231689 
  146500   0.65169442    297.20585    27.823968 
  146600   0.65197376    298.84747    2.0231838 
  146700    0.6522534    299.33333   -90.865674 
  146800   0.65261819    299.03891    -20.44046 
  146900   0.65268558    298.32498    79.483863 
  147000    0.6528036    296.63136    148.14982 
  147100     0.652567    297.83999   -129.64277 
  147200   0.65209675    298.84814    -2.212308 
  147300   0.65166584    298.24994    187.80701 
  147400   0.65126677    297.78164    45.593268 
  147500   0.65101509    297.67577   -59.425811 
  147600    0.6510106     298.8617   -5.2416078 
  147700   0.65116955    298.05029    39.237046 
  147800   0.65111171    299.30519    -11.02683 
  147900   0.65115402    296.89376   -56.044811 
  148000   0.65132629    297.17855    68.616743 
  148100   0.65147401    298.83488    108.92802 
  148200   0.65136927    297.85605    39.688336 
  148300   0.65100318    298.45825   -100.14196 
  148400   0.65056226    297.70857   -11.184438 
  148500   0.65032734     296.6622    6.4567064 
  148600   0.65047415    297.47474    70.220302 
  148700   0.65040431    297.59206   -8.6174055 
  148800   0.65057561     298.6639    49.431073 
  148900   0.65094876    296.95238    90.334629 
  149000   0.65132157    297.68678    38.937628 
  149100   0.65166493     297.1671   -56.082257 
  149200   0.65216326    297.26131    -74.06231 
  149300   0.65293527    297.70913   -71.106441 
  149400   0.65349829    297.83719   -6.4545291 
  149500   0.65365734      298.805    26.273444 
  149600   0.65369159     297.3943    35.698407 
  149700   0.65344716    298.30543    -19.38906 
  149800   0.65331628    298.00155    62.422656 
  149900   0.65337015    297.96124    6.5892614 
  150000   0.65328885     299.7818   -13.843381 
  150100   0.65285059    299.91458    124.32948 
[...]
  261800   0.66074491    297.15968    17.916262 
  261900   0.66150293    298.05621    101.46012 
  262000   0.66203799    296.90024    66.494396 
  262100   0.66198715    298.55776    14.988716 
  262200   0.66162146    298.00497   -69.317896 
  262300   0.66080573    297.89093    14.714946 
  262400    0.6598598    298.99752    3.8147967 
  262500   0.65952601    298.30708     41.80181 
  262600   0.65986202    297.33419    32.320975 
  262700   0.66050763    297.40551    89.552121 
  262800   0.66137344    296.91305    153.20471 
  262900   0.66154249    299.02848   -144.43868 
  263000    0.6612895    298.92015   -80.943228 
  263100   0.66101349    297.99426    88.558387 
  263200   0.66079663    297.17566    55.962499 
  263300   0.66064063    298.74537   -20.531966 
  263400   0.66088378    297.53466    102.57697 
  263500   0.66109819     298.0847    18.072073 
  263600   0.66125147    296.90933    4.8496333 
  263700   0.66144174     295.7162    133.19515 
  263800   0.66171424    296.41393    131.79679 
  263900   0.66174762     297.1774   -61.757033 
  264000   0.66160579    299.21506    -35.45205 
  264100   0.66136155    298.90909    6.2432453 
  264200   0.66134523    296.71001   -26.289931 
  264300    0.6615845    296.40443    1.0911593 
  264400   0.66186017    297.42103    17.690454 
  264500   0.66210703    299.16654   -0.9542667 
  264600   0.66244941    297.36682    52.580175 
  264700   0.66256535    298.13965   -78.947086 
  264800   0.66283888    298.44753    113.56426 
  264900    0.6629567    296.80238    52.945239 
  265000    0.6631142     298.0228    83.494297 
  265100   0.66329164    298.94909    76.418156 
  265200   0.66344944    299.86664    88.449207 
  265300   0.66306588    297.89587   -108.81572 
  265400   0.66257165    297.18346   -17.374232 
  265500   0.66225162    297.36243   -20.806185 
  265600   0.66253423    298.39954    9.2269527 
  265700   0.66324278    298.68056    74.593012 
  265800   0.66395072     297.5113    32.776653 
  265900   0.66442438    296.60339   -94.450595 
  266000   0.66465869    298.16459     84.90693 
  266100    0.6645085    298.01811    19.324081 
  266200   0.66430562    297.77634    19.207506 
  266300   0.66398522    297.89253    67.307044 
  266400   0.66391856     298.3221   -31.946103 
  266500   0.66400805    297.49317    -77.67439 
  266600    0.6637575    298.26214    100.26915 
  266700   0.66344856    299.90135    151.59343 
  266800   0.66293068    298.85302  -0.41272726 
  266900   0.66251197    295.36335    30.937802 
  267000   0.66217148     297.2014   -45.288069 
  267100   0.66176811    297.70249    -84.90433 
  267200    0.6616171    297.38004   -22.961382 
  267300   0.66159719    297.71873    53.178359 
  267400   0.66194079    296.52689    129.27617 
  267500   0.66191168    298.05707   -23.551769 
  267600   0.66178631    298.48402   -116.44908 
  267700   0.66180057    298.78078   -191.16757 
  267800   0.66218059    297.73903      189.186 
  267900   0.66250099    298.94181     118.0245 
  268000   0.66261901     298.1129     7.418355 
  268100   0.66262858    298.28793   -134.58913 
  268200   0.66292794    297.81186   -47.609888 
  268300   0.66371204    297.08649    14.958028 
  268400   0.66455191    297.85351    252.21405 
  268500   0.66498533    299.12413    33.043955 
  268600    0.6651546    297.66412   -129.11774 
  268700   0.66483552    296.93935    57.765373 
  268800    0.6640018    297.59135     206.3178 
  268900   0.66301666    297.80602   -70.369826 
  269000    0.6621922    299.57247    24.317195 
  269100   0.66189012    298.57835    32.205152 
  269200   0.66193034    297.93343   -49.625766 
  269300   0.66220222    297.84405    12.423366 
  269400    0.6623981    298.24202     46.09581 
  269500   0.66239557    298.52013    9.6629866 
  269600   0.66230524    297.75058    56.007209 
  269700    0.6623199    297.87566    75.924109 
  269800   0.66247754    296.86693   -13.518757 
  269900    0.6626603    297.62962    57.581184 
  270000   0.66312893    298.04901   -32.342551 
  270100   0.66305962    299.14086   -46.437914 
  270200   0.66272418    298.89874    62.489769 
  270300   0.66256725     297.0293    48.046355 
  270400   0.66254981    296.41963    12.426783 
  270500   0.66237284    298.05894    48.571933 
  270600   0.66241274     298.2784   -78.395045 
  270700   0.66266053    296.43542    1.7874159 
  270800   0.66261813    298.45601    19.075271 
  270900   0.66256635    299.86026    159.29692 
  271000   0.66241158    299.63492    4.1979588 
  271100   0.66230495    297.75049   -60.558996 
  271200   0.66220486    297.04747   -26.969078 
  271300   0.66231134    298.47617   -29.486034 
  271400   0.66268712    298.77935    23.858037 
  271500   0.66336074    296.77044    -25.99701 
  271600    0.6639454    297.15428   -3.5685086 
  271700   0.66401187    298.12051   -121.08304 
  271800   0.66369435    298.66728    7.1990856 
  271900   0.66295252    298.40255   -46.122712 
  272000   0.66231257    296.10855    30.215031 
  272100   0.66211392    296.73929    33.450922 
  272200   0.66226017    296.77498   -33.561642 
  272300   0.66274855    298.65113   -36.549786 
  272400   0.66335606    298.01367    20.405771 
  272500   0.66385392    298.36134    19.302683 
  272600    0.6640246    298.15495    -40.16326 
  272700   0.66403433    297.45509    51.066905 
  272800   0.66392004    297.86103   -27.700872 
  272900   0.66377703    298.91632   -92.282896 
  273000   0.66356297    298.51975   -137.21405 
  273100   0.66349824    297.76074   -29.329238 
  273200   0.66333544    297.75051    -28.34121 
  273300   0.66322408    298.55693    19.472662 
  273400   0.66339375    299.27136    23.895616 
  273500   0.66376901    297.40618    16.515666 
  273600   0.66413813     297.4909    -79.23934 
  273700   0.66452824    296.78755   -30.519544 
  273800   0.66485835    297.72938    148.77939 
  273900   0.66485197    299.39571    191.71487 
  274000   0.66446762     298.2421   -36.446859 
  274100   0.66390395    295.74636   -149.74115 
  274200   0.66349413    297.24648    35.199486 
  274300   0.66332669    299.49468    -61.47392 
  274400   0.66356275    298.67846   -121.88799 
  274500   0.66404535    297.33693   -100.79524 
  274600   0.66471558    298.21233   -17.194632 
  274700   0.66553682    297.70517    8.0491995 
  274800   0.66618517    297.93046     60.81612 
  274900   0.66607119    298.28764    65.057522 
  275000   0.66552995    299.64056    163.30398 
  275100   0.66486657    296.96512    69.766077 
  275200   0.66415737    296.13685    9.6917516 
  275300   0.66352742    297.80298   -73.094343 
  275400   0.66329941    298.17262    66.233345 
  275500   0.66348435    298.55631    97.807386 
  275600   0.66408996    297.74546    36.515513 
  275700   0.66503208    297.56891    3.6870704 
  275800   0.66602207    297.35266   -10.986449 
  275900   0.66626511    297.56979     59.38904 
  276000    0.6656357    298.43411    78.256011 
  276100   0.66459476    298.31461   -5.3642717 
  276200   0.66391537     297.8179   -20.727048 
  276300   0.66364884    296.68312    69.561431 
  276400    0.6634963    296.02769    61.412998 
  276500    0.6631414    297.61049    66.708487 
  276600   0.66291595    297.15362   -29.630237 
  276700   0.66282491    298.20022   -70.777053 
  276800   0.66294487    298.33408   -60.496459 
  276900   0.66294061    297.94093   -16.730328 
  277000   0.66281735    298.08185   -128.59528 
  277100   0.66270407    297.69573   -1.8673641 
  277200   0.66263282    296.82681    3.6137507 
  277300   0.66273908    296.45887    52.160373 
  277400   0.66288025    297.82151   -6.1876533 
  277500   0.66314507    298.57818   -94.569301 
  277600   0.66317845    298.08758   -82.109518 
  277700   0.66303129    298.11336    104.75935 
  277800   0.66306188    296.55563      137.405 
  277900   0.66300692    297.91045   -115.36641 
  278000    0.6630763    299.24104    29.700894 
  278100   0.66288713    298.64287    60.412523 
  278200   0.66259218    298.51862   -95.096637 
  278300   0.66244991    297.56854   -163.60653 
  278400   0.66271923    297.10007    18.210504 
  278500   0.66284298    298.40085   -7.0525709 
  278600   0.66288448     298.2071   -8.1139218 
  278700   0.66290001    297.97156   -119.44059 
  278800   0.66297552    296.65477   -88.861506 
  278900   0.66322749    297.43874    90.859728 
  279000    0.6632757    297.23986    28.480676 
  279100   0.66336603     299.1801   -169.96356 
  279200   0.66379455    298.98399    114.31876 
  279300   0.66417429    299.44239    136.82434 
  279400   0.66438041     297.0418   -11.659488 
  279500   0.66443503    296.47294   -21.018717 
  279600   0.66448616    298.12239   -28.000676 
  279700   0.66469774    297.26977   -72.984575 
  279800   0.66469732    298.72691    -27.26033 
  279900   0.66421552     298.6334    10.545737 
  280000    0.6635308    297.23249   -106.83374 
  280100   0.66280604    298.03223    93.237707 
  280200   0.66226758    297.55058    51.786184 
  280300   0.66216436    298.49956    -118.7003 
  280400   0.66216562    300.07736   -106.00731 
  280500    0.6624708    297.96518    50.739778 
  280600   0.66293554    298.19379     61.80065 
  280700   0.66340745    297.91964    127.47787 
  280800   0.66358405    298.88441   -66.870201 
  280900   0.66351448    297.40255   -134.04024 
  281000   0.66346607    298.71306    56.682936 
  281100   0.66357362    297.65511    119.99871 
  281200   0.66378717    296.70316   -218.18436 
  281300    0.6638578    296.83121   -104.54561 
  281400   0.66378142    298.98216    139.81418 
  281500   0.66350337     298.5409   -22.032291 
  281600   0.66330259     297.7594   -79.192557 
  281700   0.66323082     297.9336    -41.58037 
  281800   0.66344901    298.58597    70.677582 
  281900   0.66376504    299.10447    38.495477 
  282000   0.66387592    297.20686    -7.908583 
  282100   0.66380354    297.97697   -36.642656 
  282200   0.66400024    297.31032    105.67203 
  282300   0.66390203    299.33835   -40.512698 
  282400     0.663779    298.60236    19.611641 
  282500   0.66326802    297.71433   -49.351835 
  282600   0.66275312    297.25115     20.43531 
  282700   0.66220919    298.66786   -60.638266 
  282800   0.66210974    298.93242   -49.267486 
  282900   0.66220739    297.92398     64.63142 
  283000   0.66233912    297.30311   -6.1922542 
  283100    0.6628343    297.19468    39.331475 
  283200   0.66354029    298.26845    33.108419 
  283300   0.66405767    300.11884    21.338453 
  283400   0.66402976    299.38064   -129.11268 
  283500    0.6637556    297.67051     67.67046 
  283600   0.66309174    297.83364    43.758442 
  283700   0.66251472    297.72459   -114.07376 
  283800   0.66213682    298.85815   -16.329553 
  283900   0.66188271    298.99588    40.224095 
  284000    0.6617038    297.56906   -34.694507 
  284100   0.66158518    298.34983   -27.544781 
  284200    0.6617186    297.18626   -8.6052619 
  284300   0.66192746    297.89041    55.873997 
  284400    0.6621916    298.92092    18.878886 
  284500   0.66260851    298.28884   -156.50615 
  284600   0.66313554    298.22282   -34.142849 
  284700    0.6636985    296.95659    97.203155 
  284800   0.66424762    296.51824    13.875493 
  284900    0.6646637    298.28058    28.937118 
  285000   0.66492599    299.38743    84.429026 
  285100   0.66491412    298.39556    -31.62898 
  285200   0.66424413    297.88385    57.047918 
  285300   0.66339317    297.93882    5.6904705 
  285400   0.66294374    297.84205   -73.384006 
  285500   0.66290887    299.12272 -0.053591591 
  285600   0.66292251    298.31389    96.470255 
  285700   0.66278997    299.00914   -25.906972 
  285800   0.66259752    298.00626   -61.525804 
  285900   0.66240948    298.18095    6.5914253 
  286000   0.66241187    298.64202    96.978525 
  286100   0.66243069    299.81037    115.19821 
  286200   0.66258717    297.27065    79.922663 
  286300   0.66237071    298.33364   -84.343088 
  286400   0.66242807    298.00644    6.0225014 
  286500   0.66277345    297.93771    101.66954 
  286600   0.66283755    298.86217    51.982605 
  286700   0.66262874    297.56463    147.63262 
  286800   0.66252565    296.77275    32.187335 
  286900    0.6626048    297.88034   -10.309174 
  287000   0.66274164    298.63323   -7.1666544 
  287100   0.66256647    298.70682    75.956831 
  287200   0.66208027    298.85901    192.72155 
  287300   0.66157617    297.82726    22.838623 
  287400     0.661384    297.20946   -74.045999 
  287500   0.66137275      297.463    38.571031 
  287600   0.66143725    297.94933     99.11909 
  287700   0.66162647    299.59084    126.73996 
  287800   0.66166721      297.938    149.57366 
  287900   0.66144892    297.71112    1.7779599 
  288000   0.66143192    297.94002   -57.403011 
  288100   0.66166545    298.03118    17.970694 
  288200   0.66207036    297.31398    1.0457367 
  288300   0.66232276    298.22027    30.560371 
  288400   0.66257392    297.29478    127.79718 
  288500   0.66262812    297.84342   -34.000493 
  288600   0.66267167    299.70532   -12.604864 
  288700   0.66268904    297.52138   -100.30459 
  288800   0.66268991     297.3612   -168.72118 
  288900    0.6628194    298.15476    1.4116302 
  289000   0.66297655      298.965    82.064222 
  289100   0.66355736    297.35113    99.505312 
  289200   0.66394737    297.77503   -51.994925 
  289300   0.66423896    296.71285    4.6734043 
  289400   0.66410423    298.33177    44.458333 
  289500   0.66402652    297.78056    78.331398 
  289600   0.66348579    299.36979   -98.025672 
  289700   0.66310985    296.96734    62.431337 
  289800   0.66269952    296.59939   -1.6936632 
  289900   0.66226259    297.44216   -69.545789 
  290000   0.66228466    298.45707   -136.79027 
  290100   0.66277955    297.46068    66.534326 
  290200   0.66334742    296.14547   -58.648849 
  290300   0.66391951    296.97442    7.8840736 
  290400   0.66456382    297.71415    22.621189 
  290500   0.66489609    299.51854   -69.303742 
  290600   0.66476523    299.05663   -138.74869 
  290700   0.66433731    298.03947    114.02396 
  290800   0.66369171    297.30233    146.77043 
  290900   0.66292429     297.4371   -20.133195 
  291000   0.66259885    298.85241    -161.3535 
  291100   0.66278736    297.92393      13.3645 
  291200   0.66297119     297.5648   -24.432675 
  291300    0.6632019     297.2783     74.93554 
  291400   0.66336746    298.94508   -29.994116 
  291500   0.66402381    298.56283  -0.58300425 
  291600    0.6646329    297.55068   -10.778715 
  291700   0.66462526    296.40901    20.221508 
  291800   0.66409765     298.1591   -13.102494 
  291900   0.66356786     298.6799    -103.5414 
  292000   0.66306926    297.39803    153.45734 
  292100   0.66254537    297.48153    131.87213 
  292200   0.66206755    298.08979   0.38197796 
  292300   0.66190025    299.56792   -138.98926 
  292400   0.66229013    298.96038   -28.779784 
  292500   0.66313476    298.04378    21.328411 
  292600   0.66409109    299.39466   -23.825501 
  292700    0.6646739    298.45078   -105.53396 
  292800    0.6648154    297.45815    35.284664 
  292900   0.66474594    296.86222   -4.2602886 
  293000   0.66448186    297.58757    53.770201 
  293100   0.66408199    298.99944    43.897096 
  293200    0.6638006    298.67081    5.9382561 
  293300   0.66342865    298.10588    163.59514 
  293400   0.66319686    297.47136    185.43279 
  293500   0.66303648    296.81394   -17.861396 
  293600    0.6630362    298.75379   -145.86146 
  293700   0.66318386    298.67252    105.00537 
  293800   0.66331996    296.65895    151.75678 
  293900   0.66309065    297.80459   -81.676676 
  294000   0.66297058    296.98404    -144.1684 
  294100   0.66296109    299.07094    45.742809 
  294200   0.66317482    299.45797     21.35724 
  294300   0.66367762    299.18575   -60.298274 
  294400   0.66422041    297.64746   -131.75911 
  294500   0.66448244    297.12889   -35.623545 
  294600   0.66412577     297.5018     64.07137 
  294700   0.66337243    299.38993    34.790185 
  294800   0.66283957    298.33468   -179.32529 
  294900   0.66269443    296.83783   -60.113266 
  295000   0.66295399    297.16029    38.728353 
  295100   0.66359098    298.33981   -54.539772 
  295200   0.66465067    298.72643    6.9910822 
  295300   0.66539991    297.33636    64.992764 
  295400   0.66551154    297.09863   -18.546368 
  295500   0.66533024    297.42954    43.575157 
  295600   0.66511367    299.21838     34.47626 
  295700   0.66508131    298.10428    -134.8994 
  295800   0.66501054    298.33874    -79.58744 
  295900   0.66488499    299.19112    41.854784 
  296000    0.6646027      298.793    39.725705 
  296100   0.66433541     298.2306   -41.507615 
  296200   0.66430698     297.4658    62.953152 
  296300   0.66447282    299.04384   -79.688491 
  296400   0.66477675    298.40971    25.371207 
  296500   0.66497516    298.01946    108.33342 
  296600   0.66477407    296.69798    92.970166 
  296700   0.66418536    297.39198   -25.598353 
  296800   0.66372731    297.56123     67.38659 
  296900   0.66329217     298.5496     -108.688 
  297000   0.66308769    297.78212    -102.2073 
  297100   0.66325586    296.68746    84.411729 
  297200   0.66335355    297.55646    13.276458 
  297300   0.66328316    299.31572    5.5351325 
  297400   0.66307526    299.05722    7.7166619 
  297500     0.662913    298.40121    18.253963 
  297600   0.66280205    296.89966   -177.49433 
  297700   0.66304355    297.41478    59.398367 
  297800    0.6637032    297.78903    149.64222 
  297900   0.66435772     300.0997     185.8278 
  298000   0.66472687    299.22455    6.0050553 
  298100   0.66467379    299.00257    -159.5126 
  298200   0.66488693    297.81627    50.175601 
  298300   0.66515663    297.62087    201.76134 
  298400   0.66516635    298.42627   -54.264865 
  298500   0.66531666    299.24018   -6.7692321 
  298600    0.6654284    299.36089    3.4482369 
  298700    0.6653467    298.16872    101.24249 
  298800   0.66486598    298.34158   -58.633469 
  298900     0.664712    297.77583    12.411405 
  299000   0.66453121    297.88043    33.280449 
  299100   0.66483404    299.15337    35.360472 
  299200   0.66516679    298.95293    39.928704 
  299300   0.66520124    298.99778   -4.0138589 
  299400   0.66534216    298.76717     133.1046 
  299500   0.66557678    298.46365     66.40873 
  299600    0.6657872    298.17396     85.33145 
  299700   0.66567977    298.82709   -13.382876 
  299800   0.66531012    298.83695    43.590819 
  299900   0.66462713     298.5013     10.24518 
  300000   0.66391107    297.13249    9.3920455 
Loop time of 10797.9 on 4 procs for 100000 steps with 81000 atoms

Performance: 0.800 ns/day, 29.994 hours/ns, 9.261 timesteps/s
91.3% CPU use with 4 MPI tasks x 1 OpenMP threads

MPI task timing breakdown:
Section |  min time  |  avg time  |  max time  |%varavg| %total
---------------------------------------------------------------
Pair    | 8710.5     | 8891.6     | 9030.7     | 125.1 | 82.35
Bond    | 620.72     | 633.55     | 649.37     |  41.0 |  5.87
Neigh   | 384.54     | 384.96     | 385.64     |   2.1 |  3.57
Comm    | 488.24     | 617.03     | 784.17     | 438.6 |  5.71
Output  | 4.0127     | 4.0298     | 4.071      |   1.2 |  0.04
Modify  | 188.61     | 191.42     | 195.99     |  22.1 |  1.77
Other   |            | 75.25      |            |       |  0.70

Nlocal:    20250 ave 20328 max 20208 min
Histogram: 1 1 1 0 0 0 0 0 0 1
Nghost:    31765.5 ave 31845 max 31725 min
Histogram: 1 1 1 0 0 0 0 0 0 1
Neighs:    4.78984e+06 ave 4.85546e+06 max 4.74098e+06 min
Histogram: 1 1 0 0 0 1 0 0 0 1

Total # of neighbors = 19159354
Ave neighs/atom = 236.535
Ave special neighs/atom = 4
Neighbor list builds = 1808
Dangerous builds = 0
System init for write_restart ...
Total wall time: 8:30:06
