LAMMPS (3 Mar 2020)
OMP_NUM_THREADS environment is not set. Defaulting to 1 thread. (src/comm.cpp:94)
  using 1 OpenMP thread(s) per MPI task
OMP_NUM_THREADS environment is not set. Defaulting to 1 thread. (src/comm.cpp:94)
  using 1 OpenMP thread(s) per MPI task
Lattice spacing in x,y,z = 12 12 12
Created orthogonal box = (0 0 0) to (120 120 120)
  1 by 2 by 2 MPI processor grid
Read molecule hexane:
  6 atoms with max type 2
  5 bonds with max type 1
  4 angles with max type 1
  3 dihedrals with max type 1
  0 impropers with max type 0
Created 24000 atoms
  create_atoms CPU = 0.0231175 secs
Neighbor list info ...
  update every 1 steps, delay 10 steps, check yes
  max neighbors/atom: 2000, page size: 100000
  master list distance cutoff = 16
  ghost atom cutoff = 16
  binsize = 8, bins = 15 15 15
  1 neighbor lists, perpetual/occasional/extra = 1 0 0
  (1) pair lj/cut, perpetual
      attributes: half, newton on
      pair build: half/bin/newton
      stencil: half/bin/3d/newton
      bin: standard
Setting up Verlet run ...
  Unit style    : metal
  Current step  : 0
  Time step     : 0.001
Per MPI rank memory allocation (min/avg/max) = 18.41 | 18.41 | 18.41 Mbytes
Step Temp E_pair E_mol TotEng Press 
       0            0    248.01313     170.5304    418.54353    7105.7231 
    1000    203.41695   -503.79006    285.07947    412.31203    627.07986 
Loop time of 17.5441 on 4 procs for 1000 steps with 24000 atoms

Performance: 4.925 ns/day, 4.873 hours/ns, 56.999 timesteps/s
90.6% CPU use with 4 MPI tasks x 1 OpenMP threads

MPI task timing breakdown:
Section |  min time  |  avg time  |  max time  |%varavg| %total
---------------------------------------------------------------
Pair    | 12.253     | 12.399     | 12.528     |   3.3 | 70.67
Bond    | 1.476      | 1.4945     | 1.519      |   1.3 |  8.52
Neigh   | 1.4377     | 1.4459     | 1.4556     |   0.5 |  8.24
Comm    | 1.7894     | 1.9321     | 2.0933     |   8.6 | 11.01
Output  | 8.1836e-05 | 9.2792e-05 | 0.00010646 |   0.0 |  0.00
Modify  | 0.13475    | 0.1357     | 0.13646    |   0.2 |  0.77
Other   |            | 0.1368     |            |       |  0.78

Nlocal:    6000 ave 6049 max 5941 min
Histogram: 1 0 1 0 0 0 0 0 1 1
Nghost:    11500 ave 11545 max 11430 min
Histogram: 1 0 0 0 1 0 0 0 0 2
Neighs:    704615 ave 718678 max 687935 min
Histogram: 1 0 0 1 0 0 0 0 1 1

Total # of neighbors = 2818459
Ave neighs/atom = 117.436
Ave special neighs/atom = 4
Neighbor list builds = 44
Dangerous builds = 0
Setting up Verlet run ...
  Unit style    : metal
  Current step  : 1000
  Time step     : 0.001
Per MPI rank memory allocation (min/avg/max) = 18.41 | 18.41 | 18.41 Mbytes
Step Density Temp Press 
    1000   0.33123908    203.41695    627.07986 
    1100   0.33123908    233.57012    29.223946 
    1200   0.33123908    241.74688   -659.51854 
    1300   0.33123908    244.99678   -1912.6062 
    1400   0.33123908     274.5396   -849.15426 
    1500   0.33123908    301.91145    460.84261 
    1600   0.33123908    306.19046    767.86699 
    1700   0.33123908    298.65438    1737.2792 
    1800   0.33123908    292.14287    1696.8955 
    1900   0.33123908    297.72502     533.9719 
    2000   0.33123908    303.83117   -227.01009 
    2100   0.33123908    305.80249    -1108.031 
    2200   0.33123908    294.21382   -1958.5002 
    2300   0.33123908    288.89512   -1332.6188 
    2400   0.33123908    291.23949   -598.64885 
    2500   0.33123908    296.11129    169.67137 
    2600   0.33123908    298.80076    1200.6873 
    2700   0.33123908    301.56277    1444.0407 
    2800   0.33123908      299.045    1023.5303 
    2900   0.33123908    303.26217    611.62884 
    3000   0.33123908    299.22226   -118.24741 
    3100   0.33123908    293.17996   -858.67084 
    3200   0.33123908    294.86153   -1037.4088 
    3300   0.33123908    297.93509   -999.70009 
    3400   0.33123908    295.98703   -668.52383 
    3500   0.33123908    300.24921    42.615588 
    3600   0.33123908    298.88392    540.10754 
    3700   0.33123908    294.88661    824.51307 
    3800   0.33123908    299.07361    877.91351 
    3900   0.33123908    301.75136    463.32795 
    4000   0.33123908    300.13529    50.246645 
    4100   0.33123908    297.23949   -211.59546 
    4200   0.33123908    294.79342   -513.31594 
    4300   0.33123908    298.77243   -607.28338 
    4400   0.33123908    300.66183   -450.28589 
    4500   0.33123908    298.05132   -223.61362 
    4600   0.33123908    294.16187   -45.417574 
    4700   0.33123908    297.10286    120.88109 
    4800   0.33123908    298.27466    227.83296 
    4900   0.33123908    301.31465    284.12716 
    5000   0.33123908    300.19129    233.92954 
    5100   0.33123908    297.48924    109.66176 
    5200   0.33123908    294.53561    57.927858 
    5300   0.33123908    298.91006   -60.549448 
    5400   0.33123908    299.45186   -118.76566 
    5500   0.33123908    300.11245   -251.84138 
    5600   0.33123908    298.76291   -303.31604 
    5700   0.33123908     295.3277   -282.37361 
    5800   0.33123908    296.76599   -224.06845 
    5900   0.33123908    299.60658   -176.15271 
    6000   0.33123908    301.19866    31.654936 
Loop time of 85.0474 on 4 procs for 5000 steps with 24000 atoms

Performance: 5.080 ns/day, 4.725 hours/ns, 58.791 timesteps/s
95.3% CPU use with 4 MPI tasks x 1 OpenMP threads

MPI task timing breakdown:
Section |  min time  |  avg time  |  max time  |%varavg| %total
---------------------------------------------------------------
Pair    | 57.965     | 61.933     | 65.312     |  36.0 | 72.82
Bond    | 7.132      | 7.2473     | 7.349      |   3.0 |  8.52
Neigh   | 6.3836     | 6.4101     | 6.4299     |   0.7 |  7.54
Comm    | 4.0625     | 7.5736     | 11.54      | 104.9 |  8.91
Output  | 0.0036614  | 0.0042484  | 0.0057878  |   1.4 |  0.00
Modify  | 1.1468     | 1.2083     | 1.2557     |   3.6 |  1.42
Other   |            | 0.6708     |            |       |  0.79

Nlocal:    6000 ave 6203 max 5751 min
Histogram: 1 0 0 1 0 0 0 0 1 1
Nghost:    11844.5 ave 12021 max 11610 min
Histogram: 1 0 0 0 0 1 0 1 0 1
Neighs:    744259 ave 799331 max 669365 min
Histogram: 1 0 0 0 1 0 0 0 1 1

Total # of neighbors = 2977036
Ave neighs/atom = 124.043
Ave special neighs/atom = 4
Neighbor list builds = 203
Dangerous builds = 0
Setting up Verlet run ...
  Unit style    : metal
  Current step  : 6000
  Time step     : 0.001
Per MPI rank memory allocation (min/avg/max) = 18.41 | 18.6 | 18.8 Mbytes
Step Density Temp Press 
    6000   0.33123908    301.19866    31.654936 
    6100   0.33327456    297.27941    8.7731331 
    6200   0.33532675    297.31874    171.05949 
    6300   0.33739583    297.95629    192.55225 
    6400   0.33948197    294.93546    240.07524 
    6500   0.34158533    297.95034    273.40464 
    6600   0.34370612    299.93858    93.414672 
    6700   0.34584449    299.98205   -118.83207 
    6800   0.34800064    298.35338   -358.03042 
    6900   0.35017475    298.67514   -490.99652 
    7000   0.35236701    295.78442   -519.87945 
    7100    0.3545776    299.28235   -493.66017 
    7200   0.35680673    296.55795   -342.20626 
    7300   0.35905457    298.69618   -147.59356 
    7400   0.36132135    296.49281    91.541159 
    7500   0.36360724    298.06809    237.93464 
    7600   0.36591245    294.57486    341.10604 
    7700   0.36823719    300.43965     265.5397 
    7800   0.37058167    298.83871    203.22321 
    7900   0.37294609    297.17847     37.01167 
    8000   0.37533067    298.13957   -201.34872 
    8100   0.37773562    296.73099   -390.43567 
    8200   0.38016116    298.89406   -437.61027 
    8300   0.38260752    297.30402   -550.98527 
    8400    0.3850749    298.96533   -499.95977 
    8500   0.38756355    300.26154   -254.71163 
    8600   0.39007369    297.12102     29.77451 
    8700   0.39260556    294.86001    186.86041 
    8800   0.39515938     296.5152    183.61045 
    8900    0.3977354    300.71856    290.05935 
    9000   0.40033386    300.46258     342.2524 
    9100     0.402955    299.96907    143.11462 
    9200   0.40559908    293.49703    15.352694 
    9300   0.40826634    295.86892   -106.97762 
    9400   0.41095704    298.57882   -336.29975 
    9500   0.41367143    297.14563   -450.35581 
    9600   0.41640978    299.03368   -338.29106 
    9700   0.41917236    298.24288   -383.81519 
    9800   0.42195942    296.79821   -271.33855 
    9900   0.42477125    298.20085   -65.830375 
   10000   0.42760812    298.27416   -24.227616 
   10100    0.4304703    299.40066    116.54075 
   10200   0.43335809    297.14427    154.82867 
   10300   0.43627176    297.09741    171.34759 
   10400   0.43921161    298.51951    185.12861 
   10500   0.44217794    296.17444   -39.526056 
   10600   0.44517104    295.12591   -66.676517 
   10700   0.44819121    296.18696   -155.58459 
   10800   0.45123877    297.58792   -308.05267 
   10900   0.45431401    297.12507   -284.74438 
   11000   0.45741727    298.45317   -220.74033 
   11100   0.46054885    297.15628   -223.53939 
   11200   0.46370908    298.42434   -232.06389 
   11300    0.4668983    299.38365   -37.505486 
   11400   0.47011682    298.13812   -52.670161 
   11500     0.473365     296.6017    88.800074 
   11600   0.47664317    296.16993    228.96461 
   11700   0.47995168    298.93556    314.75628 
   11800   0.48329088    296.86018    57.902677 
   11900   0.48666112     295.8934   -141.66573 
   12000   0.49006278    299.22227   -288.31868 
   12100   0.49349622    300.37989   -332.97234 
   12200    0.4969618    299.72023   -345.13126 
   12300   0.50045991    297.91506   -295.14142 
   12400   0.50399092    299.18162   -138.45058 
   12500   0.50755523     297.8819   -110.70949 
   12600   0.51115324    298.72407    25.507284 
   12700   0.51478533    300.73507    154.28203 
   12800   0.51845191    297.14795    200.48615 
   12900   0.52215339    296.49097    87.504175 
   13000    0.5258902    296.22691     180.7111 
   13100   0.52966275    300.16424    133.87313 
   13200   0.53347147    301.30097   -40.867839 
   13300   0.53731679    299.27279   -186.87618 
   13400   0.54119916    298.50944   -306.16967 
   13500   0.54511902    297.84437    -314.5671 
   13600   0.54907683    298.71334    -147.4111 
   13700   0.55307304    299.12458   -61.844338 
   13800   0.55710813    298.70565    98.432545 
   13900   0.56118257    296.14672    263.68334 
   14000   0.56529683    297.76203    107.21918 
   14100   0.56945141    297.70382     329.3748 
   14200    0.5736468    298.72906     318.6521 
   14300   0.57788351    297.71398    245.71687 
   14400   0.58216204    300.43369    176.81704 
   14500   0.58648291    300.32997    253.08243 
   14600   0.59084665    298.43058    275.77197 
   14700   0.59525378    298.49133    136.68478 
   14800   0.59970486    299.83842    157.10839 
   14900   0.60420042    296.77343    116.37671 
   15000   0.60874103    298.56606    294.12924 
   15100   0.61332725    297.58611    337.93984 
   15200   0.61795966    298.27366    355.53243 
   15300   0.62263884    301.15618     385.2046 
   15400   0.62736537    300.48513    634.05131 
   15500   0.63213987    297.50657    688.45347 
   15600   0.63696294    296.82045    526.64237 
   15700    0.6418352    297.50711    691.23241 
   15800   0.64675727    298.60953    714.76855 
   15900   0.65172981    295.29778     836.8919 
   16000   0.65675345    297.82578    830.40977 
Loop time of 230.707 on 4 procs for 10000 steps with 24000 atoms

Performance: 3.745 ns/day, 6.409 hours/ns, 43.345 timesteps/s
95.2% CPU use with 4 MPI tasks x 1 OpenMP threads

MPI task timing breakdown:
Section |  min time  |  avg time  |  max time  |%varavg| %total
---------------------------------------------------------------
Pair    | 159.59     | 177.51     | 187        |  83.8 | 76.94
Bond    | 14.27      | 14.572     | 14.829     |   5.2 |  6.32
Neigh   | 13.104     | 13.13      | 13.167     |   0.7 |  5.69
Comm    | 11.611     | 21.278     | 39.601     | 247.5 |  9.22
Output  | 0.0082785  | 0.0097946  | 0.013731   |   2.3 |  0.00
Modify  | 2.3893     | 2.542      | 2.6515     |   6.1 |  1.10
Other   |            | 1.667      |            |       |  0.72

Nlocal:    6000 ave 6114 max 5868 min
Histogram: 1 0 1 0 0 0 0 0 1 1
Nghost:    16120.5 ave 16158 max 16059 min
Histogram: 1 0 0 0 0 1 0 0 0 2
Neighs:    1.40557e+06 ave 1.48371e+06 max 1.31903e+06 min
Histogram: 1 0 0 0 0 2 0 0 0 1

Total # of neighbors = 5622282
Ave neighs/atom = 234.262
Ave special neighs/atom = 4
Neighbor list builds = 299
Dangerous builds = 0
Setting up Verlet run ...
  Unit style    : metal
  Current step  : 16000
  Time step     : 0.001
Per MPI rank memory allocation (min/avg/max) = 21 | 21.39 | 21.78 Mbytes
Step Density Temp Press 
   16000   0.65675345          298    1250.8166 
   16100   0.65675345    290.25141    648.02412 
   16200   0.65675345    293.68315    448.34267 
   16300   0.65675345    297.29569    334.80726 
   16400   0.65675345    294.98288    292.57233 
   16500   0.65675345    299.71983    575.00504 
   16600   0.65675345    299.88528     509.7782 
   16700   0.65675345    297.13965    371.72142 
   16800   0.65675345    290.04805    253.04043 
   16900   0.65675345    295.78181      189.242 
   17000   0.65675345    298.76025    278.34071 
   17100   0.65675345    292.35398    338.57951 
   17200   0.65675345    298.59146    414.32748 
   17300   0.65675345    297.80081    316.04787 
   17400   0.65675345     302.4554    337.99891 
   17500   0.65675345    301.43168     426.1772 
   17600   0.65675345    297.01866    339.65354 
   17700   0.65675345    291.92169   -15.688112 
   17800   0.65675345    292.26991    256.23184 
   17900   0.65675345    302.07243    570.19788 
   18000   0.65675345    303.56057    155.63444 
   18100   0.65675345    299.03545    15.739518 
   18200   0.65675345    294.09728    460.71348 
   18300   0.65675345    293.87153    260.91823 
   18400   0.65675345    296.34727    59.854265 
   18500   0.65675345    298.93349    358.37813 
   18600   0.65675345    301.82664    451.52024 
   18700   0.65675345    299.24598     376.8306 
   18800   0.65675345    296.05727    263.13835 
   18900   0.65675345    295.19634    298.59735 
   19000   0.65675345    297.00458    421.78269 
   19100   0.65675345    300.28068    339.67369 
   19200   0.65675345    299.11861    163.62055 
   19300   0.65675345    298.97801     112.5379 
   19400   0.65675345    298.44081    249.43527 
   19500   0.65675345    300.48173    280.53215 
   19600   0.65675345    297.01691    256.94665 
   19700   0.65675345    296.02371    200.26621 
   19800   0.65675345    297.07933    201.40421 
   19900   0.65675345    296.95965    354.73635 
   20000   0.65675345    301.54394    434.74383 
   20100   0.65675345    297.29914    106.40382 
   20200   0.65675345    294.11567    19.141264 
   20300   0.65675345    295.42331    229.74678 
   20400   0.65675345    296.41836    147.47643 
   20500   0.65675345    300.77334    216.04484 
   20600   0.65675345    299.03462    338.59979 
   20700   0.65675345    298.89429    319.41665 
   20800   0.65675345    293.36587     319.3234 
   20900   0.65675345    296.29193    416.03628 
   21000   0.65675345    299.63104    223.48847 
   21100   0.65675345    300.53291    350.30567 
   21200   0.65675345    297.26868    166.14603 
   21300   0.65675345    294.71711    156.26909 
   21400   0.65675345    297.48052    356.16131 
   21500   0.65675345    299.29596    260.91113 
   21600   0.65675345    297.61389    259.00164 
   21700   0.65675345    297.41529    306.96345 
   21800   0.65675345    296.90738    157.04049 
   21900   0.65675345    296.12614    213.05107 
   22000   0.65675345    298.36507    352.26061 
   22100   0.65675345    299.57701     310.2646 
   22200   0.65675345    299.18342    116.70206 
   22300   0.65675345    297.23392    228.10292 
   22400   0.65675345    298.52601    251.36246 
   22500   0.65675345    296.61773    334.45832 
   22600   0.65675345    298.27863     273.4633 
   22700   0.65675345    299.40306    144.73681 
   22800   0.65675345    299.93382    57.770995 
   22900   0.65675345    296.21245    131.52325 
   23000   0.65675345    295.83421     364.2954 
   23100   0.65675345    297.96414    285.76766 
   23200   0.65675345    298.59478    185.98209 
   23300   0.65675345    298.33353    226.37857 
   23400   0.65675345    296.80398    319.66767 
   23500   0.65675345    297.07806     372.2367 
   23600   0.65675345    294.82779    330.13503 
   23700   0.65675345    298.83439    232.52573 
   23800   0.65675345    298.37445    176.92875 
   23900   0.65675345    300.12132     37.70664 
   24000   0.65675345    296.82895    50.034764 
   24100   0.65675345     296.9689    352.86048 
   24200   0.65675345    297.72629    188.34958 
   24300   0.65675345      298.624    86.003889 
   24400   0.65675345    298.50136    269.16916 
   24500   0.65675345    297.34921    239.62552 
   24600   0.65675345      297.902    173.98293 
   24700   0.65675345    299.43735    283.36245 
   24800   0.65675345    299.26464    310.41528 
   24900   0.65675345    297.68387     66.70461 
   25000   0.65675345    296.40849   -87.038127 
   25100   0.65675345    296.18946    56.272624 
   25200   0.65675345    299.04923    310.59165 
   25300   0.65675345    297.83661    492.28812 
   25400   0.65675345    298.29958    351.51266 
   25500   0.65675345    298.83785    194.15465 
   25600   0.65675345    297.05737    160.47584 
   25700   0.65675345    298.07838    205.61785 
   25800   0.65675345    295.58906    194.05299 
   25900   0.65675345    293.72709    307.70799 
   26000   0.65675345    295.90163    163.76614 
   26100   0.65675345    297.17013    112.65696 
   26200   0.65675345    298.58964    170.02705 
   26300   0.65675345    299.34834    387.83048 
   26400   0.65675345    298.44661    276.08835 
   26500   0.65675345    299.23258    339.16291 
   26600   0.65675345    295.74519    415.04856 
   26700   0.65675345     294.7715    340.40703 
   26800   0.65675345    297.92318    354.08606 
   26900   0.65675345    298.05008    429.37512 
   27000   0.65675345    297.25643    252.90384 
   27100   0.65675345    297.80333      181.918 
   27200   0.65675345    298.99482    234.53414 
   27300   0.65675345    295.71569    55.689134 
   27400   0.65675345     297.1792    142.84737 
   27500   0.65675345    297.15793    375.62247 
   27600   0.65675345    297.40049    422.78724 
   27700   0.65675345    298.68749    191.33788 
   27800   0.65675345     300.5907    168.67549 
   27900   0.65675345    301.42101     354.7646 
   28000   0.65675345    298.00348    438.76064 
   28100   0.65675345     297.1947    386.14944 
   28200   0.65675345    298.21523    191.65977 
   28300   0.65675345    298.41787    412.50852 
   28400   0.65675345     296.5866    449.71672 
   28500   0.65675345    292.87591    163.11014 
   28600   0.65675345    297.83251    15.246588 
   28700   0.65675345    299.49986    99.970864 
   28800   0.65675345    300.70748    115.89683 
   28900   0.65675345    298.73643     97.27417 
   29000   0.65675345    296.24695   -60.503808 
   29100   0.65675345    297.09967    107.72629 
   29200   0.65675345     296.5878    332.66097 
   29300   0.65675345    297.80698    296.89621 
   29400   0.65675345    299.08867    318.36744 
   29500   0.65675345    297.94755    377.11875 
   29600   0.65675345    295.42329    225.10327 
   29700   0.65675345    298.62785    188.35284 
   29800   0.65675345    298.15632      367.324 
   29900   0.65675345    298.46916    242.53617 
   30000   0.65675345    298.14339    120.66186 
   30100   0.65675345    296.95393    217.35681 
   30200   0.65675345    295.66132    210.13531 
   30300   0.65675345    295.02129    110.87534 
   30400   0.65675345    296.92313    82.272948 
   30500   0.65675345    296.33166     141.4121 
   30600   0.65675345    298.41595    361.91027 
   30700   0.65675345    297.06606    483.32795 
   30800   0.65675345    299.77474    135.76034 
   30900   0.65675345    300.31884    263.11348 
   31000   0.65675345    294.05814     329.2764 
   31100   0.65675345    297.57727    194.32197 
   31200   0.65675345    298.61993    19.524115 
   31300   0.65675345    299.18701    114.08034 
   31400   0.65675345    297.17616    226.15735 
   31500   0.65675345    295.73337     137.7499 
   31600   0.65675345    296.84189    89.736872 
   31700   0.65675345     299.7608    160.91338 
   31800   0.65675345    300.73457    128.96388 
   31900   0.65675345    299.10384    308.02629 
   32000   0.65675345    298.16626    449.17729 
   32100   0.65675345    296.62058    242.76384 
   32200   0.65675345    293.01533     151.2017 
   32300   0.65675345    297.42352     240.7555 
   32400   0.65675345    298.50497    209.99289 
   32500   0.65675345    298.50132    241.14982 
   32600   0.65675345    295.54847    228.77399 
   32700   0.65675345    297.23762    340.51015 
   32800   0.65675345     300.2537    68.657648 
   32900   0.65675345    300.03981    -55.33622 
   33000   0.65675345     296.9114    -13.62128 
   33100   0.65675345    297.04161    30.486574 
   33200   0.65675345    297.00159    158.83623 
   33300   0.65675345    301.15133     173.6332 
   33400   0.65675345    298.47394    245.62914 
   33500   0.65675345    296.76109    245.76327 
   33600   0.65675345    295.72521    287.90235 
   33700   0.65675345    296.53932    182.96585 
   33800   0.65675345    298.95806    479.83042 
   33900   0.65675345    298.76963    434.42184 
   34000   0.65675345    296.57558    128.95608 
   34100   0.65675345    297.63747    248.09485 
   34200   0.65675345    297.06749    513.37586 
   34300   0.65675345    298.86393    268.44836 
   34400   0.65675345    299.71909    36.026093 
   34500   0.65675345    297.04341    179.31994 
   34600   0.65675345    296.19864    324.90754 
   34700   0.65675345    297.72576     204.8205 
   34800   0.65675345    299.67376    40.903053 
   34900   0.65675345    300.36135    147.89483 
   35000   0.65675345    297.56103    284.29953 
   35100   0.65675345    298.78184    312.61861 
   35200   0.65675345    297.32519    165.47227 
   35300   0.65675345    297.27324    418.73729 
   35400   0.65675345    297.39114    211.39875 
   35500   0.65675345    296.13878     113.7816 
   35600   0.65675345    296.64483    532.39964 
   35700   0.65675345    297.87547    386.41181 
   35800   0.65675345    299.75212    67.454507 
   35900   0.65675345    297.13527    342.72644 
   36000   0.65675345    296.88785    63.723188 
   36100   0.65675345    296.87233   -13.023507 
   36200   0.65675345    297.40033    113.18391 
   36300   0.65675345    296.14027    81.002362 
   36400   0.65675345    300.68949    179.80771 
   36500   0.65675345    295.89227    354.66741 
   36600   0.65675345    295.79576    136.46923 
   36700   0.65675345    296.71419      231.981 
   36800   0.65675345    297.42699     246.2974 
   36900   0.65675345    300.04919   -66.548274 
   37000   0.65675345     297.9388    241.34105 
   37100   0.65675345    298.49303    108.63531 
   37200   0.65675345    295.25351   -268.52249 
   37300   0.65675345    295.67386   -14.407095 
   37400   0.65675345    298.98915     371.4706 
   37500   0.65675345    299.95556    274.45703 
   37600   0.65675345    300.34284   -79.258816 
   37700   0.65675345     297.2621    42.812558 
   37800   0.65675345    298.12157    380.61611 
   37900   0.65675345    297.06807    278.78248 
   38000   0.65675345    296.62498    87.490932 
   38100   0.65675345    300.64505    173.98894 
   38200   0.65675345     301.0065    229.66601 
   38300   0.65675345    298.27014    412.34301 
   38400   0.65675345    297.60419    3.3736371 
   38500   0.65675345    294.54541    128.36137 
   38600   0.65675345    298.52421      174.764 
   38700   0.65675345    298.17831   -111.74672 
   38800   0.65675345    297.16086    11.883167 
   38900   0.65675345    294.78401      243.717 
   39000   0.65675345    298.12577    289.03634 
   39100   0.65675345    297.44971    154.39942 
   39200   0.65675345    296.97555    34.812917 
   39300   0.65675345    298.55459     129.6748 
   39400   0.65675345    294.91209    58.298392 
   39500   0.65675345    296.71854    227.49058 
   39600   0.65675345    298.48248    219.29935 
   39700   0.65675345    297.84907   -25.541651 
   39800   0.65675345    298.53027    142.04998 
   39900   0.65675345    297.76882    163.34335 
   40000   0.65675345    295.22414    88.181034 
   40100   0.65675345    295.13472    147.80432 
   40200   0.65675345    298.44485    239.71115 
   40300   0.65675345    299.28946    60.493493 
   40400   0.65675345    297.62274    297.65397 
   40500   0.65675345    298.66942    304.04638 
   40600   0.65675345    296.55399    294.57377 
   40700   0.65675345    298.81182      338.092 
   40800   0.65675345    299.83882    243.49567 
   40900   0.65675345    298.33659   -106.93922 
   41000   0.65675345    299.99227    156.64622 
   41100   0.65675345    297.02957    245.03137 
   41200   0.65675345    297.87973    132.08736 
   41300   0.65675345    299.77963     228.1118 
   41400   0.65675345    299.90777    278.55186 
   41500   0.65675345    296.92785    264.26854 
   41600   0.65675345     296.2571    46.116673 
   41700   0.65675345    295.53727     422.9353 
   41800   0.65675345    298.25867    523.74762 
   41900   0.65675345     299.6731    333.15794 
   42000   0.65675345    299.99626    198.81725 
   42100   0.65675345    297.19255    271.33623 
   42200   0.65675345    297.06392    105.97526 
   42300   0.65675345    298.53144     34.50134 
   42400   0.65675345     299.7311    147.48804 
   42500   0.65675345    299.40419    347.76173 
   42600   0.65675345    297.29668    139.12026 
   42700   0.65675345    299.12664    147.69501 
   42800   0.65675345    296.51203    267.89808 
   42900   0.65675345    299.48634    231.32714 
   43000   0.65675345    300.08217    174.43058 
   43100   0.65675345    298.63035      254.995 
   43200   0.65675345    297.71459    404.82257 
   43300   0.65675345     297.5627    478.90777 
   43400   0.65675345    297.50014    216.06344 
   43500   0.65675345    295.64575    405.96741 
   43600   0.65675345    295.23463    270.95349 
   43700   0.65675345    296.72757     55.91441 
   43800   0.65675345    299.42434    73.696232 
   43900   0.65675345    296.87069    45.304266 
   44000   0.65675345    296.72388    115.86769 
   44100   0.65675345    298.25592     179.7703 
   44200   0.65675345      299.307     144.0114 
   44300   0.65675345    297.22966     215.3748 
   44400   0.65675345     297.9618    308.76744 
   44500   0.65675345    298.44737    99.733109 
   44600   0.65675345    296.45259    185.25566 
   44700   0.65675345    297.57505    197.98924 
   44800   0.65675345    298.58304    116.31858 
   44900   0.65675345    297.83149    254.43411 
   45000   0.65675345    297.46602    266.25014 
   45100   0.65675345    298.85559     213.6455 
   45200   0.65675345    297.49025   -64.866089 
   45300   0.65675345    297.40257     48.85978 
   45400   0.65675345     294.2946      289.801 
   45500   0.65675345    297.92118    222.59742 
   45600   0.65675345    296.69498    234.21148 
   45700   0.65675345    298.97866    143.98644 
   45800   0.65675345    298.63586    390.34501 
   45900   0.65675345    296.56216    512.61953 
   46000   0.65675345    294.80643     32.15225 
   46100   0.65675345    294.93391    142.88942 
   46200   0.65675345    298.08107    218.13345 
   46300   0.65675345    300.93582    169.90156 
   46400   0.65675345    298.69211    174.00878 
   46500   0.65675345    298.52684    193.25968 
   46600   0.65675345    298.38573    180.52144 
   46700   0.65675345    296.49836    0.8545978 
   46800   0.65675345    295.73833    23.896874 
   46900   0.65675345    298.04948   -27.638908 
   47000   0.65675345     299.5714    167.57702 
   47100   0.65675345    298.62825    465.00326 
   47200   0.65675345    298.99093    394.77316 
   47300   0.65675345    297.91782   -35.783858 
   47400   0.65675345    295.52056     223.1582 
   47500   0.65675345     296.4385    437.04982 
   47600   0.65675345       300.31    165.70493 
   47700   0.65675345    297.73462    193.84612 
   47800   0.65675345    295.55301   -97.153531 
   47900   0.65675345    295.87589    74.517856 
   48000   0.65675345    299.42883    330.70736 
   48100   0.65675345     297.8261    116.62655 
   48200   0.65675345    296.88152   -118.64476 
   48300   0.65675345    295.12962     286.4505 
   48400   0.65675345      295.646     361.3976 
   48500   0.65675345    300.81275    131.85652 
   48600   0.65675345    296.80194    229.74464 
   48700   0.65675345    298.18444    450.18313 
   48800   0.65675345    299.11844    337.05054 
   48900   0.65675345    297.87809    217.41711 
   49000   0.65675345    295.14813   -58.091922 
   49100   0.65675345    294.40625    93.871935 
   49200   0.65675345    298.90752    68.100663 
   49300   0.65675345    300.60939   -193.52127 
   49400   0.65675345    300.56511    38.106923 
   49500   0.65675345    300.02437    202.41207 
   49600   0.65675345    296.75364    75.255022 
   49700   0.65675345     296.4134    189.57456 
   49800   0.65675345    298.11651    417.33456 
   49900   0.65675345    298.88214    334.42261 
   50000   0.65675345    298.07721    249.81109 
Loop time of 1001.35 on 4 procs for 34000 steps with 24000 atoms

Performance: 2.934 ns/day, 8.181 hours/ns, 33.954 timesteps/s
95.5% CPU use with 4 MPI tasks x 1 OpenMP threads

MPI task timing breakdown:
Section |  min time  |  avg time  |  max time  |%varavg| %total
---------------------------------------------------------------
Pair    | 803.99     | 830.59     | 852.51     |  61.8 | 82.95
Bond    | 49.235     | 49.778     | 50.475     |   7.5 |  4.97
Neigh   | 37.524     | 37.567     | 37.614     |   0.5 |  3.75
Comm    | 46.314     | 67.861     | 93.861     | 211.2 |  6.78
Output  | 0.027548   | 0.031381   | 0.040877   |   3.1 |  0.00
Modify  | 8.3454     | 8.4961     | 8.6281     |   3.6 |  0.85
Other   |            | 7.027      |            |       |  0.70

Nlocal:    6000 ave 6038 max 5893 min
Histogram: 1 0 0 0 0 0 0 0 0 3
Nghost:    16323 ave 16384 max 16274 min
Histogram: 1 0 1 0 0 1 0 0 0 1
Neighs:    1.40305e+06 ave 1.44913e+06 max 1.33547e+06 min
Histogram: 1 0 0 0 0 1 0 0 1 1

Total # of neighbors = 5612181
Ave neighs/atom = 233.841
Ave special neighs/atom = 4
Neighbor list builds = 596
Dangerous builds = 0
Setting up Verlet run ...
  Unit style    : metal
  Current step  : 50000
  Time step     : 0.001
Per MPI rank memory allocation (min/avg/max) = 21.4 | 21.49 | 21.78 Mbytes
Step Density Temp Press 
   50000   0.65675345    298.07721    249.81109 
   50100   0.65546282    297.57824    259.09875 
   50200   0.65238039    295.36969  -0.50977053 
   50300   0.64902089    294.41425    91.913035 
   50400   0.64681356    295.31532   -70.142801 
   50500   0.64565217    296.40305   -204.15844 
   50600   0.64492722    298.43596   -158.20709 
   50700   0.64405591    299.36764   -268.98053 
   50800   0.64303481    300.56173   -124.53095 
   50900   0.64227791     297.8912   -95.975514 
   51000    0.6423915     298.2648    20.835254 
   51100   0.64230971    297.31551     154.2129 
   51200   0.64217158    298.19361    325.29778 
   51300   0.64210208    298.26516    79.653316 
   51400   0.64195018    296.34784   -55.441933 
   51500   0.64169981     297.6966    181.99005 
   51600   0.64121239    300.16165    85.366799 
   51700   0.64114029    296.25614    -99.76356 
   51800   0.64099772    296.62948    50.367534 
   51900   0.64035701    295.97401    46.112632 
   52000   0.63963341    298.57593   -29.509306 
   52100   0.63867812    298.85535     90.36479 
   52200   0.63802736    298.95906   -130.65174 
   52300   0.63780455     298.4978    -238.7931 
   52400   0.63774388    296.89718    102.48752 
   52500   0.63784366    298.68108     225.0892 
   52600   0.63775069    299.92136    105.20097 
   52700   0.63777022    296.96469     157.1878 
   52800   0.63787753    297.05118   -94.381623 
   52900   0.63811051    298.36312    202.11114 
   53000   0.63815958     298.9211     192.0884 
   53100   0.63859209    301.69105    6.7973548 
   53200   0.63881806    298.30587    24.041898 
   53300   0.63771776     296.8891   -137.05377 
   53400   0.63660939     297.9876   -343.85735 
   53500   0.63647473    297.61987   -407.08569 
   53600   0.63719503    300.54162   -144.96862 
   53700   0.63811242    301.06095   -55.404576 
   53800   0.63861276    298.77747    -161.5345 
   53900    0.6384468    297.75863   -101.63682 
   54000   0.63788857    297.62775   -41.772921 
   54100   0.63689488    296.99282    244.04512 
   54200   0.63597776    300.07039   -12.248586 
   54300   0.63578763    300.62986   -27.610072 
   54400   0.63558443    297.15181    44.668329 
   54500   0.63557114    297.00249   -65.618746 
   54600   0.63576647    299.05953    151.18536 
   54700   0.63614215    299.07673    92.816642 
   54800   0.63657995    295.20405   -1.8488663 
   54900   0.63681061    297.12095   -298.14644 
   55000    0.6375127    294.73924   -423.49625 
   55100   0.63858868    299.24524   -257.70296 
   55200   0.63960679    299.17778   -94.338163 
   55300   0.63973911    297.31845   -37.862705 
   55400   0.63835674     296.1503     88.94048 
   55500   0.63647084    295.19232    182.95831 
   55600   0.63462061    296.57195    57.631333 
   55700   0.63377336    299.64306    338.06709 
   55800   0.63352834    300.23698    319.91062 
   55900   0.63314849    300.38342    35.628789 
   56000    0.6335828    296.59967    208.74383 
   56100   0.63406193    298.59081    81.604745 
   56200   0.63450411    297.08434    18.409454 
   56300   0.63467108    298.10931    1.5844602 
   56400   0.63449231     302.5485    102.47037 
   56500   0.63389383    300.54535    12.589933 
   56600   0.63305401    296.95066    8.1107805 
   56700   0.63290439    297.30271   -64.152779 
   56800   0.63389763    296.72785   -69.876895 
   56900   0.63541794    297.18626    246.92069 
   57000   0.63659163    298.79649    275.26032 
   57100   0.63671801    301.19364    113.87751 
   57200   0.63643042    299.08826    86.396727 
   57300   0.63521071    295.96818    28.760536 
   57400   0.63368405    297.74678   -12.073718 
   57500   0.63313107    299.92883   -103.09685 
   57600   0.63349089    298.45462   -149.67879 
   57700   0.63424402    296.33337    85.335588 
   57800   0.63507872    296.11345     141.0851 
   57900   0.63589351    293.99781   -144.40312 
   58000    0.6360794    300.03781   -84.427607 
   58100   0.63604192    297.76684   -77.525427 
   58200    0.6361463    296.74927    205.51348 
   58300   0.63566092    299.33228     304.8236 
   58400   0.63515919    299.56266    72.297569 
   58500   0.63454049    299.16757    -22.50213 
   58600   0.63402843    298.69258    282.37699 
   58700   0.63364814    295.88095    96.582206 
   58800   0.63394499    298.31364     -13.8165 
   58900   0.63506767    298.40192    52.136313 
   59000   0.63581758    299.25766   -2.8521721 
   59100   0.63623789    300.06824    105.28816 
   59200   0.63627695    296.66806    16.606624 
   59300   0.63637629    298.26974   -215.16373 
   59400   0.63671173    299.05626   -14.155204 
   59500   0.63741886    302.01587    155.10657 
   59600   0.63889066    298.15166    68.064811 
   59700   0.64006623    296.44191    -95.98787 
   59800   0.64013243    300.30067   -275.21653 
   59900   0.64000384     297.4763    52.924004 
   60000   0.63993244    295.56521    357.68757 
   60100   0.64000844    297.69017    313.17153 
   60200   0.64041818    300.63581   -32.146918 
   60300   0.64082618    299.29868     -41.1291 
   60400    0.6408822    297.10403    61.257914 
   60500   0.64079916    297.24867   -49.501903 
   60600   0.64080383    297.52839    97.776207 
   60700   0.64081739    300.26322    126.97535 
   60800   0.64106145    299.49406    187.36706 
   60900   0.64115396    296.94599     247.7605 
   61000   0.64112357    295.22842   -106.29571 
   61100   0.64107173    298.12574    -143.9554 
   61200   0.64090707    297.21398    74.388395 
   61300   0.64099072    296.41637    146.15057 
   61400   0.64139347    297.63869   -197.01377 
   61500   0.64226736    295.26242   0.44072547 
   61600   0.64292542    298.83601   -29.571707 
   61700   0.64326803    298.33039    58.817302 
   61800   0.64288903     300.7161    39.933287 
   61900   0.64210352    297.21734   -52.563488 
   62000   0.64100049    295.32119   -19.964979 
   62100   0.63988285    297.97509    9.5222042 
   62200   0.63912118    298.95461   -58.738858 
   62300   0.63887483    299.08913   -114.13649 
   62400   0.63904186    295.39123     -144.838 
   62500   0.63924084    297.47444    80.631488 
   62600   0.63943392    300.82109    47.739718 
   62700   0.63998648    300.23274   -125.31614 
   62800    0.6409702    296.68471   -208.45631 
   62900   0.64192978    297.92865   -90.525341 
   63000    0.6422691    298.79353    5.4274522 
   63100   0.64215766    295.12203    28.273813 
   63200   0.64129497    295.75167    -277.0452 
   63300   0.64041108    298.86622    45.417047 
   63400   0.63942852    299.53732   -22.342374 
   63500   0.63834492    298.18343   -231.02347 
   63600   0.63839292    295.19761   -110.10353 
   63700   0.63909913    296.46871    114.36442 
   63800   0.64028356    297.43462   -8.4367472 
   63900   0.64138663    298.91592   -88.200397 
   64000   0.64195274    297.35013   -133.30424 
   64100   0.64226243    296.08973     30.86603 
   64200   0.64208497    296.27039     65.49336 
   64300   0.64151928    298.02307     7.714725 
   64400   0.64076183    301.19804   -174.97476 
   64500     0.639909    295.92044    17.120359 
   64600   0.63893831    296.44755   -57.490411 
   64700    0.6383416    296.26293   -233.89612 
   64800   0.63860441    298.54855   -34.034591 
   64900   0.63937005    299.57339    42.469367 
   65000   0.64062286    298.36443   -206.09766 
   65100   0.64255441    296.49295     45.57196 
   65200    0.6439533    297.37661    274.28203 
   65300   0.64410048    299.85632   -218.96646 
   65400   0.64351719    302.50989    -322.1168 
   65500   0.64234036    302.72669    67.768218 
   65600   0.64080679    299.25589    10.720344 
   65700   0.63939097    299.89912   -218.86469 
   65800   0.63855804    296.84197   -155.30888 
   65900   0.63861357    297.95088   -70.794854 
   66000   0.63896885    299.86675    229.83695 
   66100   0.63859382    298.79435   -40.020065 
   66200   0.63801145    299.94579   -93.754412 
   66300   0.63767464    296.55391   -103.90701 
   66400   0.63776606    298.04452    26.617713 
   66500   0.63788471    299.67504   -224.36399 
   66600   0.63852114     297.3928   -141.38551 
   66700   0.63920564    295.94735   -63.038973 
   66800   0.63990822    296.75207   -138.32834 
   66900    0.6408315    298.19904    105.32957 
   67000   0.64108927    299.26162   -50.936965 
   67100   0.64117489    297.27948   -137.64869 
   67200   0.64128133    299.49777    239.16932 
   67300   0.64132596    297.00298    239.03289 
   67400   0.64103763    298.11217   -50.740028 
   67500   0.64041056    297.54287   -75.224667 
   67600   0.63965787    302.87576   -76.364134 
   67700    0.6390774    298.25147   -21.521243 
   67800   0.63830747    296.64321   -1.5248725 
   67900   0.63777554    297.58354    14.127065 
   68000   0.63822302    297.99933    126.15303 
   68100   0.63890232    299.71662    147.42459 
   68200   0.63993879    296.92685   -80.587056 
   68300    0.6410788    298.23658   -203.08524 
   68400   0.64216087    297.04552     69.95813 
   68500   0.64320586    298.95883    129.70228 
   68600     0.643976    297.98225    64.531427 
   68700    0.6442705    294.69888    241.04802 
   68800   0.64411009      294.336   -80.147078 
   68900   0.64421637    296.47891    3.3656791 
   69000    0.6438638     298.8392    220.29943 
   69100   0.64332031    296.88365    105.60522 
   69200   0.64291481    297.82472   -114.62705 
   69300    0.6426507    295.70122    22.361204 
   69400   0.64234561    294.03407   -24.293953 
   69500   0.64222819    295.51077   -107.24171 
   69600   0.64207616    299.56143   -18.580981 
   69700   0.64162432    299.56272    146.17235 
   69800   0.64149698    298.49974    219.33763 
   69900    0.6419176     296.6213   -12.328153 
   70000   0.64266034    297.71048    -225.1522 
   70100   0.64319819    297.37549   -82.952719 
   70200   0.64343212     297.6708    -60.06694 
   70300   0.64398566    296.31605    81.574372 
   70400   0.64485878    296.77789   -69.846998 
   70500   0.64502497    298.48466   -57.940409 
   70600   0.64435399    299.22991    35.734097 
   70700   0.64278329    298.74069   -36.378459 
   70800    0.6415843    296.45741    17.110091 
   70900   0.64114283    296.17092   -104.04044 
   71000   0.64108795    299.05877   -301.85748 
   71100   0.64169987    298.28523   -16.438197 
   71200   0.64190557    298.74926    150.92872 
   71300    0.6417329    297.92876    2.6080706 
   71400   0.64117136    296.62071   -215.31935 
   71500   0.64039825    295.17733    175.05246 
   71600   0.63959595    296.11458    258.94871 
   71700   0.63937689    297.48096    85.327315 
   71800   0.63986747    297.90165   -6.8314321 
   71900   0.64011355     297.6531   -286.67402 
   72000   0.63997515    298.85953      63.1714 
   72100   0.63939216    299.19067    255.12401 
   72200   0.63868054    296.26581   -48.808285 
   72300   0.63870268     293.8249   -190.04051 
   72400   0.63910269    296.83268   -234.30179 
   72500    0.6402705    297.22309   -49.149463 
   72600   0.64108246    299.10212     151.9793 
   72700   0.64134759    300.30429    126.60672 
   72800    0.6413408    296.46995   -102.61412 
   72900   0.64078904     298.8794    -133.8643 
   73000   0.64042873    295.86111   -1.9494191 
   73100   0.64013909    299.56079   -146.06778 
   73200   0.63996509    299.26123    148.22422 
   73300    0.6394313     298.3618    250.07852 
   73400   0.63908786    296.56145    176.36082 
   73500   0.63919304    295.56451    131.27598 
   73600   0.63960556    301.68942    177.28748 
   73700   0.64069917    299.54281   -209.84072 
   73800   0.64222225    297.69991   -26.022283 
   73900   0.64328084    295.62982    206.01219 
   74000   0.64349698    297.92177   -137.17262 
   74100   0.64336918    301.12464   -278.25387 
   74200   0.64329003    298.34377   -20.917457 
   74300   0.64330258    298.37632    -5.913116 
   74400   0.64323034    297.72457    91.495225 
   74500   0.64233959    298.49405     177.6148 
   74600   0.64137491    298.76242    95.078458 
   74700   0.64005645    298.65323   -20.746604 
   74800    0.6393019    295.95236    62.512259 
   74900   0.63932171    294.91102   -230.91115 
   75000   0.63999774    299.36929    -248.2342 
   75100   0.64097857    298.11207    202.51524 
   75200   0.64136097     298.4818     38.14812 
   75300   0.64082966    299.23777   -252.08573 
   75400   0.64005002    299.37792   -60.668885 
   75500   0.63926881     295.0594    3.2787487 
   75600   0.63865702    298.03023   -93.191986 
   75700   0.63834316    299.70144    35.219829 
   75800   0.63868336    299.41138   -25.402178 
   75900   0.63951651    298.63601   -150.32088 
   76000   0.64050616    297.97961   -24.820704 
   76100   0.64146225    297.71546    115.75037 
   76200    0.6414885    297.48422    155.73591 
   76300   0.64090427    297.38165    52.492022 
   76400   0.64033993    293.22645   -12.928027 
   76500   0.63898144    297.25565   -359.01467 
   76600   0.63763659    297.21489      27.3419 
   76700   0.63698829    297.94542   -167.63485 
   76800   0.63742555    298.76456   -210.75948 
   76900   0.63890722    298.27218    192.75045 
   77000   0.64083141    295.67458    380.47405 
   77100   0.64220027    296.45026    33.380952 
   77200   0.64272513    298.84075   -28.484603 
   77300   0.64205158    299.63189   -3.8388268 
   77400   0.64068425     298.2362    326.16172 
   77500   0.63982604     296.1495    121.82394 
   77600   0.63964571    296.54782   -277.68206 
   77700   0.64010768    298.00899    97.186834 
   77800    0.6398942    298.51898    86.894854 
   77900   0.63906478    298.53008   -37.130663 
   78000   0.63859075    298.54782   -117.52904 
   78100   0.63890353      296.322   -19.704724 
   78200   0.63935419    298.57484   -107.78989 
   78300   0.64024656    298.45409    248.30704 
   78400   0.64108736    299.93031     180.9576 
   78500   0.64129784    300.05511     16.76478 
   78600   0.64086755     298.1267   -44.152261 
   78700   0.64009428     296.9817     165.7851 
   78800   0.63940534    297.63747    197.68337 
   78900   0.63854626    299.05028    163.02195 
   79000   0.63766831    297.75625   -102.38739 
   79100   0.63667063     300.1673   -42.987131 
   79200    0.6363394    297.33968     44.05281 
   79300   0.63690757    298.43278   -29.964902 
   79400   0.63805165    298.73724    -110.4961 
   79500   0.63931379    299.26675   -255.00649 
   79600   0.64005223    296.26267   -55.680646 
   79700   0.64004046    297.70608    108.59129 
   79800    0.6400264    297.34853    122.08974 
   79900   0.63981872    297.33013    -324.3858 
   80000   0.63949538    299.54492    60.090547 
   80100   0.63973626    297.67375     219.4088 
   80200   0.64022139     297.4539   -26.583954 
   80300   0.64090094    296.91795   -150.67641 
   80400   0.64159115    297.30392    17.513462 
   80500   0.64167609    298.16792    260.18045 
   80600   0.64101235     299.2069     336.0741 
   80700   0.63976356    298.41434    40.712852 
   80800   0.63864203    296.54511   -120.57541 
   80900    0.6380221    300.24394   -59.132418 
   81000   0.63800997    299.98241    198.30022 
   81100    0.6381266    298.49911    103.12127 
   81200   0.63811256    297.82977   -23.861792 
   81300   0.63785261    298.12271    27.025057 
   81400   0.63801646    296.76739    167.34256 
   81500   0.63828416    295.79141    16.313355 
   81600   0.63868591    301.51958   -58.602368 
   81700   0.63949961    299.92007    116.21808 
   81800    0.6404157    299.42884   -20.782073 
   81900    0.6418537    297.33205    15.042187 
   82000   0.64273515    297.08222   -59.024301 
   82100    0.6428569    299.13455   -28.247081 
   82200   0.64270714    298.55441    43.865297 
   82300   0.64244829    295.79703   -94.426629 
   82400   0.64164195    294.79499   -21.582751 
   82500   0.64054461    296.96713    34.835343 
   82600   0.64005931    299.16062    57.756648 
   82700   0.64012861    297.83761    11.748633 
   82800   0.64056859    298.57586    -60.99063 
   82900   0.64145903    298.05759   -42.452172 
   83000   0.64247764    294.21294   -57.188206 
   83100   0.64318487    297.58951    138.11782 
   83200    0.6432109    298.53827   -12.556313 
   83300   0.64282659    298.35488   -114.32738 
   83400   0.64264763    295.79025   -76.131718 
   83500   0.64261213    296.27565    -27.67582 
   83600   0.64291346     298.6995    123.92118 
   83700   0.64303362    298.71142   -46.361824 
   83800   0.64320086     298.9764    14.906839 
   83900   0.64349063    295.68615   -78.288127 
   84000   0.64394905    296.19102    101.79615 
   84100   0.64418905    295.84865   -4.7054225 
   84200   0.64389136    297.21698   -292.44896 
   84300   0.64358565    296.92757    -50.60859 
   84400   0.64298115    297.38209    323.30161 
   84500   0.64237616    299.06461    30.871237 
   84600   0.64253063     301.4313    -193.3551 
   84700   0.64348473     297.9926   -23.701508 
   84800   0.64478935    295.00236    143.03934 
   84900   0.64518049    297.19789    13.187322 
   85000   0.64509339    300.52306    37.959244 
   85100   0.64465703    296.19813   -7.3991919 
   85200   0.64377057    296.43063   -42.936638 
   85300   0.64304359    295.27475   -3.3354913 
   85400    0.6432749    297.01186   -177.26333 
   85500   0.64343755    297.18161   -6.4216413 
   85600   0.64299203    297.77489    217.03094 
   85700    0.6426811     296.3254    24.177866 
   85800   0.64246823    295.67705   -191.84325 
   85900   0.64219492    296.90954   -58.512734 
   86000   0.64198681    298.65044   -92.415063 
   86100   0.64187347    297.24419   -3.2825649 
   86200   0.64223863    298.43715    223.78303 
   86300   0.64279792    296.66947   -39.425214 
   86400   0.64349905    297.07579   -66.705859 
   86500   0.64310472    300.27999    37.872804 
   86600   0.64207846    299.34576    13.647868 
   86700   0.64123371    296.84822    -58.07055 
   86800   0.64078793    294.98567   -62.728781 
   86900   0.64141969    298.78983    132.69121 
   87000    0.6427726     300.4895    30.064582 
   87100    0.6439911    300.40055   -170.97609 
   87200   0.64473386    301.95423   -43.115208 
   87300   0.64437481    300.31744    196.47139 
   87400   0.64312485    297.23877    258.60591 
   87500   0.64185326    295.80946   -193.97903 
   87600   0.64121474    297.55434   -244.35774 
   87700   0.64100584    298.29875   -35.783955 
   87800   0.64089867    300.34717    50.009192 
   87900   0.64085029    296.84096   -70.101108 
   88000   0.64080631    296.68052   -215.25489 
   88100   0.64075921    295.01309   -13.609977 
   88200   0.64117981    295.18458    127.30135 
   88300   0.64158762    300.40673    73.114415 
   88400   0.64241392    298.96712   -19.054775 
   88500   0.64363543    298.33403   -8.5023916 
   88600   0.64405776    296.03203   -11.908006 
   88700   0.64387163    296.89442     53.64943 
   88800   0.64296653    297.97192    -262.1836 
   88900   0.64308253    299.70177    92.641325 
   89000    0.6435147    299.04878    104.26285 
   89100   0.64420009    296.81527    29.302614 
   89200   0.64485208     297.3989    73.440726 
   89300    0.6453871    298.78127    63.432333 
   89400   0.64545706    297.38126   -14.176944 
   89500   0.64484452    300.80076    -40.01859 
   89600   0.64391192    297.61985   -33.551066 
   89700   0.64262142    293.90337   -64.870891 
   89800    0.6416629    294.64425    29.090592 
   89900   0.64183353     296.7916   -34.600828 
   90000   0.64285912    298.38953   -22.951366 
   90100   0.64392019    299.88952    55.031113 
   90200   0.64509369    297.63125    236.99329 
   90300   0.64580972    298.07337    205.28215 
   90400   0.64592867    298.21309    191.34838 
   90500   0.64536535    300.13881    216.63716 
   90600   0.64434972    300.87151     111.0376 
   90700   0.64335584    300.20208   -116.24469 
   90800   0.64307694    296.23736   -16.581313 
   90900   0.64349696    297.82103   -7.8995217 
   91000   0.64471619    299.72308   -29.921837 
   91100   0.64595745    300.65356   -97.802834 
   91200   0.64672148    299.74789    43.613888 
   91300   0.64726457     297.8686    97.336731 
   91400   0.64711794    296.87413    24.816093 
   91500   0.64652647    302.13254   -110.75431 
   91600   0.64615969    299.06015    125.39294 
   91700     0.646509     298.3623    237.13603 
   91800   0.64702551    295.83326    310.04798 
   91900   0.64691283    299.99817    198.71618 
   92000   0.64621421    300.38093     107.2553 
   92100   0.64530083    296.71691   -108.05972 
   92200   0.64458715    296.74034    24.440201 
   92300   0.64413123     296.6966    103.66492 
   92400   0.64394609    299.39675   -78.739729 
   92500   0.64424169    298.63894   -197.34367 
   92600   0.64503793     298.9682   -209.06195 
   92700   0.64597962    297.79964    83.300926 
   92800   0.64606752    300.00843   -48.951759 
   92900   0.64602778    298.30756    -28.88031 
   93000   0.64576284    297.95324   -90.700354 
   93100   0.64576192    296.43229     43.76003 
   93200   0.64615568    295.78148    335.47462 
   93300    0.6457519    299.87155    91.338738 
   93400    0.6447263    299.12858   -110.69536 
   93500   0.64333705    298.28153    102.16623 
   93600   0.64203751    298.28374    18.759305 
   93700    0.6411909    295.45852    -156.2902 
   93800   0.64076875     298.2375   -237.37367 
   93900   0.64091234    299.11344   -302.00184 
   94000   0.64199105    297.50187   -152.79786 
   94100   0.64394751    296.00833    18.548978 
   94200   0.64614928    299.03694   -43.744494 
   94300   0.64788762    298.88732   -68.489925 
   94400   0.64891151    299.97051   -4.6362954 
   94500   0.64967274    298.19637    221.20503 
   94600   0.65002349    296.79485    359.38401 
   94700    0.6495336    297.05998   -35.870564 
   94800   0.64885279    297.53428   -188.76249 
   94900   0.64806949    297.86921   -52.569132 
   95000   0.64757754    299.36452    231.13971 
   95100   0.64686082    299.24763   -333.08059 
   95200   0.64620288    296.79103   -182.50978 
   95300   0.64556021    296.85955    104.27536 
   95400   0.64501136    296.90979    201.10447 
   95500   0.64493308    299.89501    74.618857 
   95600   0.64474688    299.05364   -235.91167 
   95700    0.6445032    299.02401    92.416616 
   95800   0.64419447    296.85585    462.92421 
   95900   0.64481697    296.04574    153.50493 
   96000   0.64559966     298.8036    14.467733 
   96100    0.6451844    299.98597    130.68951 
   96200   0.64427396    297.80971    252.11587 
   96300   0.64314335    296.05255    38.136413 
   96400   0.64292414    296.14757    1.1301214 
   96500   0.64312398    299.91023    47.119668 
   96600   0.64343404    300.10253    164.75534 
   96700   0.64387553    298.85087    146.09711 
   96800   0.64433764    296.71322   -180.71317 
   96900   0.64462807    298.49575    95.702207 
   97000   0.64511183    295.83602    -77.38473 
   97100   0.64581176    296.63972     147.5079 
   97200   0.64593718    300.46159    283.11366 
   97300   0.64552567    300.76821   -15.727943 
   97400   0.64489639    297.41798   -33.790365 
   97500   0.64441222    295.99289    301.35534 
   97600   0.64407289    298.39557    18.528497 
   97700    0.6441082    299.11516   -262.29449 
   97800   0.64395637    297.47587    83.319226 
   97900   0.64351643    295.95794    255.30451 
   98000   0.64305988    293.92957    260.95143 
   98100   0.64249587     296.8075   -171.65481 
   98200   0.64242251    296.47704   -157.87615 
   98300   0.64258428      299.211    262.84383 
   98400   0.64261525    296.25546    365.46247 
   98500   0.64222504    294.60946   -241.10437 
   98600    0.6420129    296.56192   -77.764617 
   98700   0.64299145     299.4976    63.279173 
   98800   0.64453527    300.36202    218.93923 
   98900   0.64575627    298.90207     65.64078 
   99000   0.64594398     296.7527   -181.93763 
   99100   0.64544092    297.30972   -203.80365 
   99200   0.64449811    296.86858    162.17268 
   99300   0.64336761    297.66556   -24.745091 
   99400   0.64248604    299.63265   -356.12094 
   99500   0.64190998    300.19196   -22.098462 
   99600   0.64133444    299.14163   -168.20885 
   99700    0.6412917    298.46391   -172.26683 
   99800   0.64214096    296.96515   -189.21497 
   99900   0.64388308     296.4548   -148.68322 
  100000   0.64564466    295.00398   -134.26485 
  100100   0.64687509    295.52112    226.15748 
  100200   0.64740819    300.83733   -193.70916 
  100300   0.64745155      297.975   -203.47524 
  100400    0.6468889     296.0808   -137.64058 
  100500   0.64595378    297.42383    214.91162 
  100600   0.64535341    294.78812    104.62778 
  100700   0.64500056    297.83355   -304.95945 
  100800    0.6448192     297.5294   -146.59198 
  100900   0.64430183    299.50339    111.73357 
  101000   0.64363911    298.21515    47.367393 
  101100   0.64317043    296.21061   -200.10193 
  101200   0.64259433    297.19213   -91.234207 
  101300   0.64270879    298.29676     87.01433 
  101400    0.6429654    298.75422    204.52881 
  101500   0.64314871    297.50336   -73.130197 
  101600   0.64227425    299.91058   -3.9363436 
  101700   0.64126151    299.59882   -55.936306 
  101800   0.64142777    296.39339    36.046227 
  101900   0.64242391     297.9446    -59.73097 
  102000   0.64395325     300.0258    69.073885 
  102100   0.64493614    300.69226      -71.217 
  102200   0.64537538    299.05091    187.99395 
  102300    0.6451082    296.58636    117.76321 
  102400    0.6446165    298.57727   -118.83705 
  102500   0.64447329    298.50534   -114.90234 
  102600   0.64471078    297.23237    15.443118 
  102700   0.64484749    300.55704    28.771691 
  102800   0.64510035    296.32276     102.3036 
  102900   0.64472309    296.10028   -54.690197 
  103000   0.64408402    296.36631   -15.668242 
  103100   0.64324841    298.87911    142.34068 
  103200    0.6424461     298.4595   -55.409169 
  103300   0.64209017    297.65973   -122.42642 
  103400   0.64246042    295.03873   -7.9886446 
  103500   0.64277307    295.69591    2.6408057 
  103600   0.64330068     298.4574 -0.086794885 
  103700    0.6440708    299.96046    121.38806 
  103800   0.64520898    297.63986    18.758549 
  103900   0.64616326    299.01661     52.92229 
  104000    0.6472439    299.53003   -57.924754 
  104100   0.64813175     297.4172   -137.39623 
  104200   0.64855964    297.54219    108.69735 
  104300    0.6483803    297.25195    27.489774 
  104400   0.64785118     298.0785    104.20847 
  104500   0.64637726    298.03979    67.369394 
  104600   0.64493919    296.68639    40.614541 
  104700   0.64378028    294.76434   -29.527889 
  104800   0.64362316    298.01769    148.03601 
  104900    0.6444689    297.41207    184.75217 
  105000   0.64560486    299.98007     100.7091 
  105100   0.64639321    296.87443   -6.3693045 
  105200   0.64681458    297.88961      72.3455 
  105300   0.64755938    296.91948   -101.17127 
  105400   0.64773788    300.08623    152.35342 
  105500   0.64700307    299.95059  -0.27853543 
  105600   0.64604747    298.22335     -138.921 
  105700   0.64471788    296.00224    62.491218 
  105800   0.64326419    295.95435   -183.94914 
  105900   0.64245507    297.36235   -280.25461 
  106000   0.64225501    300.22586    80.683613 
  106100   0.64248074    298.96682     -253.129 
  106200   0.64338755    297.19412   -181.95797 
  106300    0.6443757    297.95284    77.088629 
  106400   0.64526904    293.96928   -106.53092 
  106500   0.64613064    298.08967    42.853062 
  106600   0.64649875    299.03682    145.26671 
  106700   0.64624264    298.89012    207.78883 
  106800   0.64538154    294.65709   -103.98936 
  106900   0.64437479      297.585    -94.07489 
  107000   0.64451874    296.47039   -77.420362 
  107100   0.64543847    296.74932   -137.27613 
  107200   0.64701757    298.03318   -66.333472 
  107300    0.6483636    298.29573    144.56909 
  107400   0.64892457    298.70025    116.14416 
  107500   0.64886827    297.04726    141.88682 
  107600    0.6483703    297.05016   -243.10644 
  107700   0.64796893    295.38916   -95.167253 
  107800   0.64723903    299.94195   -29.339208 
  107900   0.64685651    297.60369    16.292088 
  108000    0.6465396    296.96261    -126.7545 
  108100   0.64642822    300.06137   -145.71749 
  108200   0.64694719    298.13837    81.532216 
  108300   0.64700842    296.49686    9.5992561 
  108400   0.64652785    296.71763    80.827514 
  108500   0.64572002    299.95251   -48.845068 
  108600   0.64461205    298.53727   -168.94257 
  108700     0.643923    296.49199   -40.653298 
  108800   0.64413676    296.29994    63.642021 
  108900    0.6446613    298.78704    19.347107 
  109000   0.64525523    299.14521   -38.516081 
  109100   0.64559429    298.18225   -33.369411 
  109200   0.64562526    298.88637    90.939827 
  109300   0.64565826    299.30061   -203.55525 
  109400   0.64560819    295.78684   -165.20673 
  109500   0.64558123    296.71576     94.02466 
  109600    0.6458027    297.91073    307.88936 
  109700   0.64580314    298.72931   -49.182632 
  109800    0.6457027    295.06906   -244.50657 
  109900   0.64522184    298.43608  -0.91333971 
  110000   0.64437286    298.37963    43.744976 
  110100   0.64370204    300.05037   -43.272533 
  110200   0.64360812    295.98607   -39.213039 
  110300   0.64386325    296.80448    82.029095 
  110400   0.64501791    296.86206   -48.515525 
  110500   0.64705153    295.17127   -20.663634 
  110600   0.64878241    295.11125    30.876225 
  110700    0.6491725    298.26285     203.3886 
  110800   0.64821517    297.40439    229.64483 
  110900   0.64684785    295.07107    232.60561 
  111000   0.64560815    296.04916    224.12173 
  111100   0.64479383    297.23477     242.6473 
  111200   0.64373684    298.07493   -121.75499 
  111300   0.64290144    297.90659    146.78605 
  111400   0.64247435    296.14165   -82.086322 
  111500   0.64269153    300.53514   -71.278499 
  111600   0.64347095    296.37339   -163.57098 
  111700   0.64451375    298.45653   -143.37594 
  111800   0.64568859     297.5684    107.95458 
  111900   0.64679406    298.79783    84.938153 
  112000   0.64753823    299.26215    92.346794 
  112100   0.64788867    296.74436   -51.741469 
  112200   0.64798162    296.88455    31.694295 
  112300   0.64749932    298.43456    84.211114 
  112400   0.64689511    297.96548    74.932334 
  112500    0.6464185    297.47266   -40.225408 
  112600   0.64587019    298.77711   -38.207737 
  112700   0.64556963    300.30028   -115.65469 
  112800   0.64620768    299.03832    55.156129 
  112900   0.64628694    295.54622   -59.465441 
  113000   0.64560172    298.70955   -144.09765 
  113100    0.6451586    299.48329   -67.286331 
  113200   0.64494845     300.6154    211.79586 
  113300   0.64468016    301.01024    102.25277 
  113400   0.64389773    297.56278   -274.21872 
  113500   0.64385851    296.81805    101.21734 
  113600   0.64471651     298.1149    157.72323 
  113700   0.64646383    296.05417    61.613411 
  113800    0.6480937    300.41567    92.759354 
  113900   0.64844078    300.35175    12.447256 
  114000    0.6474412    300.28769   -12.588405 
  114100   0.64631232    296.39549    133.83325 
  114200   0.64560807    297.07985   -175.85485 
  114300   0.64554756    300.30769   -308.60468 
  114400   0.64552228    299.34364   -49.178197 
  114500   0.64528423     299.9544    27.807725 
  114600    0.6449463    297.79433   -48.554847 
  114700   0.64483418    297.10758   -107.07422 
  114800   0.64533462    298.46927   -47.981953 
  114900   0.64571207     297.9559     118.6782 
  115000   0.64566983    299.60943    306.37845 
  115100   0.64541657      297.328    41.774193 
  115200   0.64490802    295.20199   -275.83689 
  115300   0.64500958    295.56546    1.3526939 
  115400   0.64560385    297.61253    84.726777 
  115500   0.64660006    299.25056   -18.766238 
  115600   0.64780472    299.55834   -254.60578 
  115700    0.6486487    297.95943   -180.20373 
  115800   0.64923722    298.30124    47.207878 
  115900   0.64942295    296.98069   -151.13431 
  116000   0.64875412    299.05945   -116.53808 
  116100   0.64780673    298.03687    221.60401 
  116200   0.64661657    298.70344    239.83526 
  116300   0.64566617    300.09136   -160.76089 
  116400   0.64511929    298.51386   -79.648249 
  116500   0.64527276     296.3721    115.99292 
  116600   0.64554578    297.56576    134.97326 
  116700    0.6461127    297.05529   -60.293455 
  116800   0.64675354    300.58371   -181.09893 
  116900   0.64774351    298.29713    97.329915 
  117000   0.64789574    298.90274   -135.64958 
  117100    0.6478184    296.87619   -186.10392 
  117200   0.64794435    297.17148   -174.24418 
  117300   0.64832353    298.11848   -76.648406 
  117400   0.64841414    299.01691   -150.39451 
  117500   0.64828098    299.01139    38.642669 
  117600   0.64843944    296.33102    64.473125 
  117700   0.64893464    296.61646    16.751774 
  117800   0.64943422    299.60892    75.690026 
  117900   0.64973398    299.45424    46.436962 
  118000   0.64951585    297.50568   -5.5034609 
  118100   0.64911652    296.10047    10.801849 
  118200   0.64874312    298.08327   -15.429738 
  118300   0.64880086    298.85343   -53.432233 
  118400   0.64891808    301.19391   -137.32086 
  118500    0.6488657    299.53381   -185.71972 
  118600   0.64844208    296.46705   -263.65301 
  118700    0.6478761    297.70006    31.579479 
  118800   0.64816757    296.86409   -7.8460031 
  118900   0.64835901    298.30527   -79.879533 
  119000   0.64809745    299.69104     118.4008 
  119100   0.64746299    297.02605    146.28159 
  119200   0.64681658    297.54526   -22.737378 
  119300   0.64639287    296.69119    34.139164 
  119400   0.64594773    297.27316    104.90569 
  119500   0.64519276    297.85402    119.38775 
  119600   0.64475897    299.17252    156.28368 
  119700   0.64466593     298.5017     2.307315 
  119800   0.64491011    295.16198    73.846891 
  119900   0.64471065    298.27371   -169.76927 
  120000   0.64491021    298.04513   -386.33221 
  120100    0.6456655    297.26269    15.332731 
  120200   0.64633401    297.98994    146.82329 
  120300   0.64708585    299.20355   -186.79778 
  120400   0.64795735    297.45428   -372.54741 
  120500   0.64888109    295.69913   -19.421182 
  120600   0.64916785    295.87809    166.03728 
  120700   0.64875167    297.18298   -4.4077437 
  120800   0.64777949     297.8977    49.811635 
  120900   0.64720404    297.98999    58.987467 
  121000   0.64709339    297.18107   -76.851557 
  121100   0.64706968    298.42371    135.45766 
  121200   0.64722814    300.50207    294.45102 
  121300   0.64721872    299.19261   -25.998687 
  121400   0.64753368    297.65894   -33.566815 
  121500   0.64864306     296.4232    238.89973 
  121600   0.65032051    298.41852    173.71423 
  121700   0.65207235     299.1553   -76.036322 
  121800   0.65273751    297.66108   -311.90806 
  121900   0.65241792    296.90873      151.543 
  122000   0.65131562    297.62359    150.53648 
  122100   0.64998406    297.89875  -0.24300919 
  122200   0.64877636    298.24766   -152.25161 
  122300   0.64726261    298.96133    165.08254 
  122400   0.64581945      297.128    90.126905 
  122500   0.64509551    298.34923   -212.23554 
  122600   0.64524619    298.27948   -182.30073 
  122700    0.6463295    299.92036   -148.75199 
  122800   0.64702486      298.379    28.044724 
  122900   0.64759178    297.30508   -9.2244037 
  123000   0.64839857    297.76819   -295.61278 
  123100   0.64924364    297.33053    -206.9075 
  123200   0.65041664    297.89997   -85.880217 
  123300   0.65140311     300.0397    25.972205 
  123400   0.65135467    300.78468    269.91213 
  123500   0.65001282    297.94447   -58.574204 
  123600   0.64846113    295.26175   -60.553066 
  123700   0.64722153    297.33103    97.612389 
  123800   0.64654082    300.50665    183.82058 
  123900   0.64665359    299.46359   -117.75467 
  124000   0.64703427    298.75011    43.385319 
  124100   0.64763037     298.7086    22.377483 
  124200   0.64772085    296.56501   -57.732576 
  124300   0.64792234    297.17487    37.401447 
  124400   0.64860072    297.60172   -75.044605 
  124500   0.64953828    297.46286    75.377324 
  124600   0.65013994    300.89616    18.883731 
  124700   0.65020249     299.7895   -119.73967 
  124800   0.64963716    297.74258    152.63139 
  124900   0.64851241    297.91289    142.72649 
  125000   0.64716256    297.47527    -254.8151 
  125100   0.64678758    297.64728   -9.3600359 
  125200   0.64647377    296.70078    130.57084 
  125300   0.64574407    301.22608    -49.82333 
  125400   0.64519857    299.54368   -9.1676656 
  125500   0.64479054    297.31615    60.684105 
  125600   0.64466104    298.43767   -170.44408 
  125700   0.64548369     297.7516    66.917132 
  125800   0.64615606    298.67674    53.184348 
  125900   0.64625388    300.85299   -39.940584 
  126000      0.64588    302.74463    262.57768 
  126100   0.64485921    301.48183   -50.115208 
  126200   0.64389558    298.17705   -237.57637 
  126300   0.64316911    297.22973    59.618118 
  126400   0.64317682    296.29465    147.81883 
  126500   0.64349885     299.4472   -30.239029 
  126600   0.64420135    301.21953    231.36822 
  126700   0.64443122    297.71507   -95.349281 
  126800    0.6450673     297.9432   -219.73259 
  126900    0.6458748    299.48567    81.645472 
  127000   0.64709905    298.64296   -38.632123 
  127100   0.64789538     298.7338   -278.80603 
  127200   0.64806608    300.83532   -59.554498 
  127300   0.64824188    299.29699     3.158237 
  127400    0.6485329    295.46381   -43.243624 
  127500   0.64889082    298.16587   -21.307561 
  127600   0.64923426     298.7118    58.112834 
  127700   0.64856701    300.64765    94.252944 
  127800   0.64785067    300.29795    114.89808 
  127900   0.64718499    295.42134   -147.17228 
  128000   0.64670964    296.18632   -164.42161 
  128100   0.64709918    298.70716    69.962551 
  128200   0.64810705     297.3801   -103.83719 
  128300    0.6493453    298.17898   -23.671068 
  128400   0.65046627    295.84295    42.548128 
  128500   0.65102781    297.38744   -2.2241845 
  128600   0.65051166    298.75213     -65.9594 
  128700   0.64920871    300.01281   -124.78227 
  128800   0.64806628    297.93124   -138.17533 
  128900   0.64728012    297.42749    73.573528 
  129000   0.64685857    299.21849   -58.963529 
  129100   0.64690197    298.03011    -214.7103 
  129200   0.64791741     294.7649   -133.66086 
  129300    0.6490981    296.70195    90.553487 
  129400   0.65009395    300.36963    -19.66623 
  129500   0.65055424    299.45958    55.010511 
  129600   0.65001173    298.84916    -90.28061 
  129700   0.64905105    297.09029    32.289665 
  129800   0.64829835    297.43247    116.85858 
  129900   0.64790779    300.20025   -135.84991 
  130000   0.64844682    300.43074   -146.45052 
  130100     0.649249    299.59302    202.56295 
  130200    0.6495202    298.65072    145.83774 
  130300   0.64997913    298.89695    63.496849 
  130400   0.65025164    297.88454   -144.63784 
  130500   0.65062698    297.43236   -47.633261 
  130600   0.65037677    297.19596   -3.6491551 
  130700    0.6500201    300.89864    171.12083 
  130800   0.64968951    297.57574     105.9297 
  130900    0.6492021    297.77147    -7.378063 
  131000   0.64880107    296.54784     107.5805 
  131100   0.64849793    298.81294   -9.6887467 
  131200   0.64866964    296.77147   -39.698634 
  131300   0.64863256    296.71461   -42.432335 
  131400   0.64860911    299.04592    94.204817 
  131500   0.64876829    297.06058    22.543268 
  131600   0.64899526    296.91826    183.00944 
  131700   0.64882235     299.2932   -90.010051 
  131800   0.64840119      298.706   -255.27084 
  131900   0.64727281    299.67883   -132.37591 
  132000   0.64631673    297.03409    178.60337 
  132100   0.64680052     296.0772   -70.950583 
  132200   0.64793611    299.61054   -331.32754 
  132300   0.64978655    298.67199    -39.10186 
  132400   0.65168728    299.46788    57.420553 
  132500   0.65322885    297.92443    95.760557 
  132600   0.65341768    298.97285   -74.074333 
  132700   0.65297879    297.27831    -64.32875 
  132800   0.65148864    299.65415    209.64138 
  132900    0.6496279    299.77653   -36.131445 
  133000   0.64811592    300.52741   -473.18477 
  133100   0.64734433    302.08312   -14.840674 
  133200   0.64709413    299.26607    61.913115 
  133300    0.6473281     295.9445   -87.873312 
  133400   0.64770743    297.64393    25.812217 
  133500   0.64841144    298.73464   -54.108041 
  133600   0.64947173    300.45928   -344.55798 
  133700   0.65055227    298.70503    60.864555 
  133800   0.65118297    297.78169    -31.43009 
  133900   0.65174615    299.27844   -131.96538 
  134000   0.65194836    298.79418    146.50197 
  134100   0.65146303    298.50881   -124.10809 
  134200   0.65101577    300.17972   -101.10689 
  134300   0.65016734    298.38909    25.436233 
  134400   0.64903051    296.73373   -147.79222 
  134500   0.64780205    296.99543   -170.73132 
  134600   0.64689892    297.48394    55.162305 
  134700   0.64657881     296.3037   -96.170017 
  134800   0.64645779    298.85416   -100.54156 
  134900   0.64650888    299.09995    163.19259 
  135000   0.64691447    299.18471   -64.965569 
  135100   0.64737261    298.00744    2.9835933 
  135200   0.64772957     296.6005    58.878434 
  135300   0.64802115    299.55781    96.322987 
  135400   0.64791549    298.07159    1.4864274 
  135500   0.64784957     300.8303   -77.952403 
  135600   0.64779463    300.38293   -87.323065 
  135700   0.64817683    296.09325    -113.5607 
  135800   0.64884212    298.63074    31.609363 
  135900   0.64949463    297.27239   -2.0301369 
  136000   0.64964695    301.10168   -71.310744 
  136100   0.64973836    301.09666    133.19609 
  136200    0.6497266    298.44471    167.80775 
  136300    0.6496035    297.57978   -38.106318 
  136400    0.6495611    296.40645    65.831334 
  136500   0.64924462    299.21533    163.40686 
  136600   0.64908868    296.88891   -161.43874 
  136700    0.6492291    296.89972    94.231218 
  136800   0.64926752    296.60809    133.25528 
  136900   0.64980888     297.2805   -8.6079771 
  137000   0.65039566    297.34868    63.096016 
  137100    0.6514475    296.05937    364.89006 
  137200   0.65147568    299.49343    159.43705 
  137300   0.65135607    298.23218    134.01249 
  137400    0.6511242    299.39062     119.3608 
  137500   0.65080067    297.71376   -30.271502 
  137600   0.65100624    294.26395    69.954768 
  137700   0.65044042    299.63413    65.567973 
  137800   0.65044708    298.06098    37.198076 
  137900   0.65094851    298.94351    48.938863 
  138000   0.65139057    299.10384    61.972926 
  138100   0.65156249    297.16622    328.27006 
  138200   0.65115843    296.34835   -70.106673 
  138300   0.65078901    299.63497   -139.15981 
  138400   0.65025744     299.9089   -25.039283 
  138500   0.64949661    299.77453    133.00323 
  138600   0.64895635     298.4729   -8.5234293 
  138700   0.64903843     295.6047   -66.367307 
  138800   0.65000382    297.61265   -49.275856 
  138900   0.65202698    299.30132   -57.793993 
  139000   0.65403645    300.42768    423.65256 
  139100    0.6544738    300.10714    174.80647 
  139200   0.65308226    299.39279   -53.417371 
  139300   0.65134568    300.11331   -284.65652 
  139400   0.65148384    296.88117   -106.78303 
  139500   0.65214838    299.07275    154.20711 
  139600   0.65305506    300.26089    172.31469 
  139700   0.65375433    298.39957   -75.709925 
  139800   0.65423765    297.20544   -313.14675 
  139900    0.6546386    296.75632    34.951289 
  140000   0.65428896    297.47199    83.946587 
  140100   0.65388249    297.88563   -123.38614 
  140200   0.65324304    300.83557   -151.07507 
  140300   0.65275259    296.99834    22.899719 
  140400   0.65216607    294.76446    166.69267 
  140500   0.65166298    299.38606   -85.110307 
  140600   0.65177349    298.69599   -243.95346 
  140700   0.65206595    297.22922   -3.2967843 
  140800   0.65273216    295.15567    236.81324 
  140900   0.65324737    293.74401   -15.835781 
  141000   0.65358309    295.23206   -118.35165 
  141100   0.65390622    295.60658   -18.932727 
  141200   0.65397823    296.95189   -23.461607 
  141300   0.65332097    298.98294    -189.3113 
  141400   0.65270227    299.06203   -281.78564 
  141500   0.65142762     297.7213   -168.32477 
  141600   0.64997055    298.28629   -14.938094 
  141700   0.64867005    297.49158   -68.749201 
  141800   0.64729217    298.49153   -28.981597 
  141900   0.64621238    297.17047   -22.292307 
  142000    0.6459436    296.86408    -198.1198 
  142100   0.64703723    297.06464   -107.42469 
  142200   0.64894942    296.37238    205.97032 
  142300   0.65074586    298.95684    312.88645 
  142400   0.65176158    301.46045    153.31376 
  142500   0.65178498    296.50713   -105.75693 
  142600   0.65147933    298.20826   -44.223112 
  142700   0.65145899    297.39859   -164.80601 
  142800   0.65160072    298.60063    55.760833 
  142900   0.65134818    300.43041    182.52968 
  143000   0.65091945    299.05616    109.90295 
  143100   0.65080426    298.59687     46.94084 
  143200   0.65050172    298.01669   -32.907004 
  143300   0.65054844     299.4888   -36.693164 
  143400   0.65092098    299.85499    295.96865 
  143500    0.6510761    297.09031     145.0493 
  143600   0.65167798    297.33251   -263.44738 
  143700   0.65266626    297.77188    0.5957656 
  143800    0.6534604     298.7294    407.09181 
  143900   0.65330405    300.30456    297.56266 
  144000   0.65260735    297.49068   -196.08077 
  144100   0.65234415    297.60694   -250.57425 
  144200   0.65251249    297.25228   -124.96991 
  144300   0.65348338    297.79548    165.30458 
  144400   0.65377711    298.73256     7.527915 
  144500   0.65309406    297.72795   -207.78358 
  144600   0.65213756    295.35475   -59.238289 
  144700   0.65168953     295.1205    306.27453 
  144800   0.65145771    296.90976    34.760019 
  144900    0.6513109    298.02532   -236.02256 
  145000   0.65097119    297.29258   -268.93472 
  145100   0.65058336    298.01035   -83.144123 
  145200   0.65058858    296.55609    109.52558 
  145300   0.65087249    296.48724   -118.41897 
  145400   0.65151261    297.39419   -141.03932 
  145500   0.65209975     296.8951   -243.17429 
  145600   0.65271446    299.73877    116.53704 
  145700    0.6531095    298.57485    2.7263968 
  145800   0.65296669    297.09057   -188.88396 
  145900   0.65235214     295.8165   -154.09338 
  146000   0.65217295    298.96597    216.04816 
  146100    0.6526695    298.48601    256.03666 
  146200   0.65266053    298.84598   -60.525764 
  146300   0.65253277    296.11361   -288.48554 
  146400   0.65247461     296.0875    -75.97688 
  146500   0.65195729    294.67752    197.30659 
  146600   0.65063038    299.04454   -92.779435 
  146700   0.64952274    294.83863    -489.8049 
  146800   0.64916472    298.81322   -117.15876 
  146900   0.64945897    301.02521    -32.83774 
  147000    0.6497257    301.70101   -43.279769 
  147100    0.6498056    297.42933    125.82313 
  147200   0.65045611    295.86722    51.046217 
  147300    0.6516886    296.82697   -210.52891 
  147400   0.65285269    298.57079     62.28781 
  147500    0.6532153    299.04124     447.0779 
  147600   0.65286446    297.44609    88.679618 
  147700   0.65175385    294.48987     63.68957 
  147800   0.65062699    296.54057   -114.41283 
  147900   0.64977492    297.83671   -142.83679 
  148000   0.64889075    298.41445     171.2432 
  148100   0.64844803    297.62236    71.083987 
  148200   0.64840009    297.55372   -108.71765 
  148300   0.64913769    295.38335    216.13935 
  148400   0.64950734    295.97878   -19.794957 
  148500   0.64986795     299.7746    -351.8816 
  148600   0.65035239    300.72595    138.24375 
  148700   0.65045405    300.69889    126.59161 
  148800    0.6504146    297.78276   -130.79557 
  148900   0.65004197    297.70017    125.85655 
  149000   0.64936644    299.34532    110.00237 
  149100   0.64878514    298.96656   -174.72487 
  149200   0.64844394    298.48017   -24.925513 
  149300   0.64771964    299.07064   -164.86596 
  149400   0.64671025    299.34356   -43.770728 
  149500   0.64636106    296.48953    76.780566 
  149600   0.64665544    298.01231   -315.85762 
  149700   0.64783932    300.57819   -311.35054 
  149800   0.64956951    300.38628    23.299857 
  149900   0.65121542    298.53146    11.695091 
  150000   0.65219985    297.56495    128.26873 
  150100   0.65262824    297.08556    90.681163 
  150200   0.65304686     300.8187   -198.70688 
[...]
  261800    0.6636578    295.60645   -316.34902 
  261900   0.66398659    298.30837   -92.776708 
  262000   0.66419295    297.01522    86.530534 
  262100   0.66453593    297.18861    452.64499 
  262200   0.66474494    297.98652    17.223422 
  262300   0.66493703    300.03787   -317.08528 
  262400   0.66483976    297.89852    231.13316 
  262500   0.66358215    298.70718    323.66309 
  262600   0.66221893    296.20508   -189.49899 
  262700   0.66187602    296.34053   -137.22172 
  262800   0.66303268    297.31347    193.38103 
  262900   0.66454488    299.43862   -5.9708547 
  263000   0.66545601    299.16257   -312.10749 
  263100   0.66574698    296.09648   -140.05563 
  263200   0.66545706    296.48567    311.76867 
  263300   0.66433078    297.32476    352.19407 
  263400   0.66329174    299.01361    141.32359 
  263500   0.66241178    299.16318   -360.33131 
  263600   0.66207328    298.93701   -57.702642 
  263700   0.66210884     298.0451    166.29016 
  263800   0.66218768    296.95507  -0.47630783 
  263900   0.66238912    298.87805    58.957055 
  264000   0.66244441    299.37845   -50.178441 
  264100   0.66215191    296.44321   -347.78699 
  264200   0.66196664    297.09066    56.799064 
  264300   0.66196654     295.5245   -202.40116 
  264400   0.66261857    292.97465   -319.93036 
  264500   0.66390229    296.37695   -52.228244 
  264600    0.6648704     296.9599    195.30135 
  264700   0.66501527    297.39232    131.05415 
  264800   0.66439745    296.94767   -74.741554 
  264900   0.66397169    297.01282   -120.71791 
  265000   0.66374959    296.53034   -38.228421 
  265100   0.66367878    298.99924    377.48582 
  265200   0.66335717    299.74422   -176.11079 
  265300   0.66333252    296.68317   -190.61008 
  265400   0.66269976    297.48207    215.58559 
  265500   0.66245939    297.86092    90.670373 
  265600   0.66263082    298.21641   -290.35013 
  265700   0.66270764    297.33347    194.29472 
  265800   0.66225051    297.21797    219.23171 
  265900   0.66144324    298.30601   -101.98037 
  266000   0.66087695     297.7851   -178.92161 
  266100   0.66111183    295.96302     126.8255 
  266200   0.66194011    297.54414   -163.81588 
  266300   0.66328984    298.26859    209.35095 
  266400   0.66426322    297.88072    181.05144 
  266500   0.66481236    297.72219    64.943691 
  266600   0.66565737    297.26944   -72.436001 
  266700   0.66593405    294.89388   -212.38441 
  266800   0.66571805    298.33113   -6.1810937 
  266900   0.66573231    300.22092    112.58372 
  267000   0.66571921    297.84827   -12.461467 
  267100     0.665798    297.78838   -151.34828 
  267200   0.66553273    299.15621    209.28716 
  267300   0.66497374    300.03735    58.633012 
  267400    0.6644516    298.51798   -52.498387 
  267500   0.66446398     296.4251    59.546224 
  267600   0.66483691    296.72928    286.25491 
  267700   0.66499409    299.48796   -180.45209 
  267800   0.66494556    299.89516    25.467186 
  267900   0.66453316     298.3139    52.679574 
  268000   0.66396975    295.85084    31.515712 
  268100   0.66303988    297.94929   -137.30387 
  268200   0.66169439    299.28841   -12.216269 
  268300   0.66094077    298.11206   -307.22373 
  268400   0.66122973    297.42517   -58.001484 
  268500   0.66192827    298.58682    204.61933 
  268600   0.66293273    296.80015    161.75976 
  268700   0.66344534    298.57706   -26.621639 
  268800   0.66300776    298.79773   -38.850087 
  268900   0.66172159    298.38127   -52.508632 
  269000   0.66026529    295.41408     -112.772 
  269100   0.65962696    294.34109    84.658347 
  269200   0.66013659    296.48656   -41.242619 
  269300   0.66186082    296.68173     0.367368 
  269400   0.66386636    299.10418    110.05944 
  269500   0.66548947    299.49314    240.47118 
  269600   0.66615236    297.68588   -202.57988 
  269700   0.66601421    298.29944    74.419326 
  269800   0.66538491    298.66211    204.62341 
  269900   0.66441287    298.07913    144.05599 
  270000   0.66370046    300.81035    59.349887 
  270100   0.66346159     299.9316    37.306253 
  270200   0.66422556    297.24432   -12.567076 
  270300   0.66514875    297.27382    256.71087 
  270400   0.66549349    298.52361    104.35971 
  270500   0.66562363    298.36291     -33.8025 
  270600   0.66530501    296.96356   -85.976257 
  270700    0.6652356    295.19675   -13.962914 
  270800   0.66533336    296.12209    170.41323 
  270900   0.66558646    297.51518    47.117151 
  271000   0.66576016     298.2787   -216.21321 
  271100   0.66558107    299.10275   -87.917522 
  271200   0.66527774    298.07924    257.82315 
  271300   0.66495409     297.3487    66.184276 
  271400   0.66475865    297.50663   -83.637498 
  271500   0.66528707    300.03849    176.57914 
  271600   0.66570561    298.48785    312.45833 
  271700   0.66554727    298.86816    179.52178 
  271800    0.6650687    296.67624    104.64818 
  271900   0.66405101    297.87216    -350.1902 
  272000    0.6639694    298.62745   -4.1517732 
  272100   0.66373302    300.60579   -71.444593 
  272200   0.66308602    302.17102   -93.705412 
  272300   0.66252443    298.04503   -166.01314 
  272400    0.6626357    298.63305    39.005534 
  272500    0.6632509    296.27361   -50.528437 
  272600    0.6643389    298.15251   -99.875872 
  272700   0.66580251    299.97658    67.289929 
  272800   0.66685633    295.49214   -274.73655 
  272900   0.66763692    295.89445    127.76226 
  273000   0.66761051    296.65103    166.98396 
  273100    0.6674609    299.09983   -136.02139 
  273200   0.66717673    298.58031   -323.67589 
  273300   0.66629522    299.43529    26.827869 
  273400   0.66515798    298.41861     30.09324 
  273500   0.66414898    297.00208    -296.1163 
  273600    0.6638183    298.35665   -328.41168 
  273700   0.66433385    299.64175   -180.76917 
  273800   0.66511127    299.41165   -117.01101 
  273900   0.66528712    300.14294    114.60552 
  274000   0.66493684    296.36045    5.7064068 
  274100   0.66405536    297.08682   -114.99631 
  274200   0.66310763    298.10728    43.697596 
  274300   0.66277097    300.23306   -9.0780814 
  274400   0.66289893    301.91791    175.79984 
  274500   0.66295497    297.48357    330.06937 
  274600   0.66273221    296.76305    103.11681 
  274700    0.6625997    295.26082     6.500204 
  274800   0.66184236    299.25571    136.18311 
  274900   0.66110441    300.40026   -108.49614 
  275000   0.66062535    296.97746   -79.305031 
  275100   0.66011611      296.095    10.822508 
  275200   0.65999379     294.4513     16.99592 
  275300   0.66046029    297.08444   -100.22641 
  275400   0.66089256    297.22074   -7.7190552 
  275500   0.66158551    298.49501   -20.904787 
  275600   0.66217469     298.3058    79.761339 
  275700   0.66294066    297.24235    239.43337 
  275800    0.6634933    297.27754   -53.435545 
  275900   0.66365133    297.60475   -56.260865 
  276000   0.66357362    297.16573    89.069556 
  276100    0.6637876    295.50348    38.244137 
  276200   0.66351707    298.05269   -109.20732 
  276300   0.66287618    300.97618   -78.856054 
  276400   0.66229517    298.80293   -94.253153 
  276500   0.66157111    297.31387    53.433073 
  276600   0.66084055    296.12571    11.176769 
  276700   0.66072334    296.30433   -55.006049 
  276800   0.66097188    295.45249   -164.53073 
  276900   0.66142449    298.65662    122.18728 
  277000    0.6620108    295.74344    57.961604 
  277100   0.66243078    296.51648   -102.78673 
  277200   0.66310075    298.20787    173.85181 
  277300   0.66363407    299.52098    148.71929 
  277400    0.6635409    300.60371    -107.4158 
  277500   0.66323054    300.27376     14.23823 
  277600   0.66248883    298.14233   -181.75215 
  277700   0.66223761     297.0085   -163.79869 
  277800   0.66187468    294.95505    8.1991853 
  277900   0.66183484    299.08026   -212.91971 
  278000   0.66188133    299.19951   -135.41127 
  278100   0.66183337    301.74226   -35.080551 
  278200   0.66182984    298.68701   -3.3581942 
  278300   0.66213613    297.03248     -37.1426 
  278400   0.66218973    299.17382     139.3077 
  278500   0.66204296    300.62181    51.530317 
  278600   0.66160737    299.26799   -218.64629 
  278700   0.66152911    296.72902    256.52658 
  278800   0.66103802    297.84646    165.03267 
  278900   0.66062472    300.64534   -41.766934 
  279000   0.66073462    299.99358    119.22254 
  279100   0.66148778    297.74716    3.1988671 
  279200   0.66264502    294.02299   -101.75445 
  279300   0.66345601    296.06839   -31.221878 
  279400   0.66370597    298.40157   -45.164611 
  279500   0.66371016    299.09602    93.151132 
  279600   0.66382117    293.29053   -68.051436 
  279700   0.66379454    296.50056   -175.68313 
  279800   0.66373891    298.84783   -108.92836 
  279900   0.66387472     299.0667    338.68631 
  280000    0.6636544    298.75052    182.01839 
  280100   0.66339287    296.57369    47.063958 
  280200   0.66329368    296.82939   -150.08308 
  280300   0.66315609     298.6827    107.28556 
  280400   0.66264306    298.62206    94.741765 
  280500    0.6615529    300.73201    251.49645 
  280600   0.66035631    297.98355   -47.904848 
  280700   0.65982265    296.14202   -252.77652 
  280800   0.65975818    298.05372   -4.6167416 
  280900   0.66024659    297.17591    307.74062 
  281000   0.66106061    299.77407   -88.023498 
  281100   0.66190004    301.90868   -280.01177 
  281200   0.66205541    298.78073    233.12252 
  281300   0.66160144    297.73974    340.27708 
  281400   0.66121699    294.99632    28.902844 
  281500   0.66162016    299.11809   -275.96078 
  281600   0.66278398    297.71013   -1.6996261 
  281700   0.66376528    299.56926    77.901022 
  281800   0.66448729    297.06607    268.44825 
  281900   0.66424343    296.14498   -190.88622 
  282000   0.66390183    297.00608    -105.0542 
  282100   0.66372757    298.53118    71.095594 
  282200   0.66389428    301.05661    215.03331 
  282300   0.66391858    297.18454    13.161285 
  282400   0.66321618    297.30411   -56.225802 
  282500   0.66213832    296.59494    78.639137 
  282600   0.66153588    298.39289    345.00568 
  282700   0.66171615    299.09323    406.70329 
  282800   0.66190394     300.0275   -8.1230123 
  282900   0.66221577    299.86092   -157.56796 
  283000   0.66288063    298.40648    137.61972 
  283100   0.66353831    297.12682    321.81819 
  283200   0.66318269    298.19106   -55.342521 
  283300   0.66251617    297.78233   -256.54314 
  283400   0.66212999    298.15189   -156.07533 
  283500   0.66216545    300.13057    155.34991 
  283600   0.66227565    298.83991    139.53299 
  283700   0.66222312    298.45158    33.644372 
  283800    0.6631442    296.73342   -97.921678 
  283900   0.66464959    295.70619    21.067561 
  284000   0.66582744     299.3845    431.72713 
  284100   0.66587057    299.03963    180.49096 
  284200   0.66553623    298.24238   -51.720395 
  284300   0.66510883    297.02572    123.78284 
  284400   0.66468328    299.27537    102.33886 
  284500   0.66419241    297.11278    75.375315 
  284600   0.66357867    300.52138   -232.43489 
  284700   0.66331364    299.08787   -50.019637 
  284800   0.66259162    299.66094    115.08931 
  284900   0.66256223    295.85086    115.45974 
  285000   0.66252549    298.05935   -154.79781 
  285100   0.66330142    298.35435   -131.87377 
  285200   0.66427724    298.32772    207.14811 
  285300   0.66454443    298.47938    130.69818 
  285400   0.66471408    295.08198    137.44058 
  285500   0.66500419    294.70561   -49.819142 
  285600   0.66579557     299.5192   -36.406252 
  285700     0.666461    298.52772   -39.719104 
  285800   0.66620942    299.12307    -62.81469 
  285900   0.66404375     299.2598    47.928731 
  286000   0.66111029    297.12098   -104.73269 
  286100   0.65953681    297.10739   -199.52666 
  286200   0.65909563    298.93287   -133.63173 
  286300   0.65926279    298.77131   -53.520304 
  286400   0.65983464    299.44051    101.05651 
  286500    0.6602831    298.79832   -82.828564 
  286600   0.66064675    297.40013    83.422606 
  286700   0.66129192    294.82647    89.407064 
  286800   0.66223486    294.87013    15.455793 
  286900   0.66337471    298.51111    12.925268 
  287000   0.66415476    299.87152    145.33963 
  287100   0.66472337    297.89321    146.99415 
  287200   0.66463945    296.93329    -210.2932 
  287300   0.66446549    297.27948   -50.567086 
  287400   0.66450529    294.44811     127.4242 
  287500   0.66445901    297.54447    -111.8299 
  287600   0.66484564    300.09422    72.812385 
  287700   0.66551696    297.67085    5.4036142 
  287800   0.66551408    298.86417   -147.78546 
  287900   0.66457466    299.72857    158.53418 
  288000   0.66293811    299.87192    80.186889 
  288100    0.6612219    299.83716    15.327188 
  288200   0.66040837    294.44426    135.01246 
  288300   0.66085111     297.5106   -11.252937 
  288400   0.66202131     297.6981   -87.487874 
  288500   0.66277364    299.10858     181.6326 
  288600   0.66280507    298.92684    138.21991 
  288700   0.66243562    296.25804   -132.67479 
  288800   0.66239054    297.03028   -177.91163 
  288900   0.66279353    297.61729    1.7809588 
  289000   0.66291252    299.86708    116.53119 
  289100    0.6623595    300.32967    21.613743 
  289200   0.66162807    297.54838    20.282598 
  289300   0.66100587    295.20421   -8.0573069 
  289400   0.66059965    297.42452   -98.469607 
  289500    0.6608579    299.94586   -160.84592 
  289600   0.66093718    301.18366    10.113453 
  289700   0.66096468    300.61188    246.42385 
  289800   0.66121066    297.15611    66.877892 
  289900   0.66115681    296.53984   -228.75454 
  290000   0.66121506    298.00527   -70.919019 
  290100   0.66117612    298.90053    114.34598 
  290200   0.66083411    300.24228   -94.261205 
  290300   0.66089387    297.24775    25.841019 
  290400   0.66088825    296.22632    66.378041 
  290500   0.66126692     298.1868   -103.38594 
  290600     0.661598    298.39246   -191.81976 
  290700    0.6616365    298.43024    22.091074 
  290800   0.66152241    298.68162     104.3112 
  290900   0.66128037    297.49664   -168.63794 
  291000    0.6614414    297.87198   -82.693411 
  291100   0.66160514     296.1835    5.7129449 
  291200   0.66189482    298.96747   -49.962034 
  291300   0.66188118    300.66829    -118.5052 
  291400   0.66160931    297.83066    66.443462 
  291500   0.66080367    296.19085    128.00968 
  291600   0.66033894    296.41951   -188.67093 
  291700   0.66124064    299.30584   -241.65404 
  291800   0.66248542    300.49189   -97.402924 
  291900   0.66341809    298.29531   -3.7271759 
  292000   0.66397436    296.85672   -15.033353 
  292100   0.66378317    296.62038   -193.50426 
  292200    0.6634074    298.25479    52.757201 
  292300   0.66290791    299.65803    227.53173 
  292400   0.66220455    299.21362   -29.766567 
  292500   0.66187217    297.67974   -144.20823 
  292600   0.66197794    295.97722    69.980723 
  292700   0.66221292    297.23837   -9.9970175 
  292800   0.66280547    298.31163   -105.96576 
  292900   0.66348683    297.54162    -170.5943 
  293000    0.6643028    297.92775    75.578734 
  293100   0.66463188    298.26619    157.17188 
  293200   0.66454915    297.16414   -168.44822 
  293300   0.66411258    295.81505    -317.9151 
  293400   0.66310092    297.27765    -45.58461 
  293500   0.66209451    300.09059    138.10521 
  293600   0.66048708    300.26742   -136.81454 
  293700   0.65961036     297.0269     -107.675 
  293800   0.65950362    297.08743    21.608513 
  293900   0.66074197    295.04406    134.65447 
  294000   0.66254798    299.07019    64.520239 
  294100   0.66379662    297.75505    284.59907 
  294200   0.66412997    301.17841    155.48842 
  294300   0.66441967    297.91659    119.86211 
  294400   0.66473629    296.20876    299.52164 
  294500   0.66470784    294.92574   -67.343887 
  294600   0.66467851    297.92605   -70.995171 
  294700   0.66389785    300.41482    11.328183 
  294800   0.66294804    298.03846    37.584106 
  294900   0.66221996    294.66732   -79.574719 
  295000   0.66163662    296.77706   -130.29051 
  295100   0.66188211    297.28347    64.171701 
  295200   0.66311486    298.38151    91.170893 
  295300   0.66419283    298.35247    46.875317 
  295400    0.6650178    296.01955     22.81295 
  295500   0.66561457     294.8705    244.18964 
  295600   0.66621601    294.70989    158.24646 
  295700   0.66726275    295.94414   -337.31187 
  295800   0.66850665    299.48734   -233.71463 
  295900   0.66846697     301.0386    316.86952 
  296000   0.66733337    298.19644    63.187284 
  296100   0.66583837    297.14216   -232.01351 
  296200   0.66510967    298.15355   -167.68625 
  296300   0.66551323    300.08348   -14.302376 
  296400    0.6656067    298.50825    179.44525 
  296500   0.66508553    301.07236    194.66005 
  296600   0.66416694    298.16301    2.5255048 
  296700   0.66290922    297.78015   -160.78305 
  296800   0.66187527    296.59913    229.90152 
  296900   0.66106771    296.37871    208.94218 
  297000    0.6606546    296.99446   -35.285583 
  297100   0.66042696    299.94067    -33.07411 
  297200   0.66083565    297.46296    184.53877 
  297300   0.66164044    296.21219   -47.444807 
  297400   0.66280415    298.51166   -2.8247332 
  297500   0.66364653    298.87811   -142.29415 
  297600   0.66411128    298.83383   -56.474281 
  297700    0.6642085    295.37989    1.7165897 
  297800   0.66386677    298.57995     69.86232 
  297900   0.66391958    297.91758    32.123237 
  298000   0.66437227    298.79531   -91.877004 
  298100   0.66486482    297.52847   -28.635213 
  298200   0.66501048    294.34248    101.84555 
  298300   0.66491227    297.63201    55.873913 
  298400   0.66533835    298.15925   -112.98499 
  298500   0.66596071    299.45119   -100.53139 
  298600    0.6662612    298.10805    103.84563 
  298700   0.66648482    294.44872    56.342445 
  298800   0.66690497    295.05336   -165.39031 
  298900   0.66720304    296.88329     79.68288 
  299000   0.66728559    299.36916    375.70266 
  299100    0.6668097    298.17411    24.625832 
  299200   0.66559832    298.02765   -204.36749 
  299300   0.66442673    298.54204    51.010613 
  299400   0.66436746    294.54355    143.68123 
  299500   0.66477936    295.47152   -63.214182 
  299600   0.66561417    299.50481   -248.99374 
  299700   0.66650273    297.60054   -173.56027 
  299800    0.6669505    299.17248   -99.485649 
  299900    0.6667334    297.76749    66.787819 
  300000   0.66597004    294.67582    -331.3683 
Loop time of 3289.9 on 4 procs for 100000 steps with 24000 atoms

Performance: 2.626 ns/day, 9.139 hours/ns, 30.396 timesteps/s
88.8% CPU use with 4 MPI tasks x 1 OpenMP threads

MPI task timing breakdown:
Section |  min time  |  avg time  |  max time  |%varavg| %total
---------------------------------------------------------------
Pair    | 2520.9     | 2608.7     | 2689.8     | 120.2 | 79.30
Bond    | 165.99     | 167.76     | 169.75     |  11.8 |  5.10
Neigh   | 116.04     | 116.39     | 116.82     |   3.1 |  3.54
Comm    | 239.33     | 319.92     | 406.61     | 339.6 |  9.72
Output  | 2.996      | 3.0907     | 3.3654     |   9.0 |  0.09
Modify  | 49.502     | 50.788     | 52.254     |  14.6 |  1.54
Other   |            | 23.22      |            |       |  0.71

Nlocal:    6000 ave 6059 max 5959 min
Histogram: 1 1 0 0 0 1 0 0 0 1
Nghost:    16388.8 ave 16427 max 16341 min
Histogram: 1 0 0 0 0 1 0 1 0 1
Neighs:    1.42433e+06 ave 1.48006e+06 max 1.3796e+06 min
Histogram: 1 1 0 0 0 1 0 0 0 1

Total # of neighbors = 5697318
Ave neighs/atom = 237.388
Ave special neighs/atom = 4
Neighbor list builds = 1706
Dangerous builds = 0
System init for write_restart ...
Total wall time: 2:36:23
