LAMMPS (3 Mar 2020)
Lattice spacing in x,y,z = 12 12 12
Created orthogonal box = (0 0 0) to (84 84 84)
  1 by 1 by 1 MPI processor grid
Read molecule hexane:
  6 atoms with max type 2
  5 bonds with max type 1
  4 angles with max type 1
  3 dihedrals with max type 1
  0 impropers with max type 0
Created 8232 atoms
  create_atoms CPU = 0.00447893 secs
Neighbor list info ...
  update every 1 steps, delay 10 steps, check yes
  max neighbors/atom: 2000, page size: 100000
  master list distance cutoff = 11.4
  ghost atom cutoff = 11.4
  binsize = 5.7, bins = 15 15 15
  1 neighbor lists, perpetual/occasional/extra = 1 0 0
  (1) pair lj/cut, perpetual
      attributes: half, newton on
      pair build: half/bin/newton
      stencil: half/bin/3d/newton
      bin: standard
Setting up Verlet run ...
  Unit style    : metal
  Current step  : 0
  Time step     : 0.001
Per MPI rank memory allocation (min/avg/max) = 11.27 | 11.27 | 11.27 Mbytes
Step Temp E_pair E_mol TotEng Press 
       0          298    78.766721    53.283354    449.10427   -1751.0553 
    1000    391.09832   -172.92207    204.76921    447.95239    2694.4904 
Loop time of 6.73839 on 1 procs for 1000 steps with 8232 atoms

Performance: 12.822 ns/day, 1.872 hours/ns, 148.403 timesteps/s
97.1% CPU use with 1 MPI tasks x no OpenMP threads

MPI task timing breakdown:
Section |  min time  |  avg time  |  max time  |%varavg| %total
---------------------------------------------------------------
Pair    | 4.3032     | 4.3032     | 4.3032     |   0.0 | 63.86
Bond    | 1.2956     | 1.2956     | 1.2956     |   0.0 | 19.23
Neigh   | 0.8242     | 0.8242     | 0.8242     |   0.0 | 12.23
Comm    | 0.082608   | 0.082608   | 0.082608   |   0.0 |  1.23
Output  | 0.10417    | 0.10417    | 0.10417    |   0.0 |  1.55
Modify  | 0.092032   | 0.092032   | 0.092032   |   0.0 |  1.37
Other   |            | 0.03666    |            |       |  0.54

Nlocal:    8232 ave 8232 max 8232 min
Histogram: 1 0 0 0 0 0 0 0 0 0
Nghost:    8557 ave 8557 max 8557 min
Histogram: 1 0 0 0 0 0 0 0 0 0
Neighs:    338985 ave 338985 max 338985 min
Histogram: 1 0 0 0 0 0 0 0 0 0

Total # of neighbors = 338985
Ave neighs/atom = 41.1789
Ave special neighs/atom = 4
Neighbor list builds = 46
Dangerous builds = 0
Setting up Verlet run ...
  Unit style    : metal
  Current step  : 1000
  Time step     : 0.001
Per MPI rank memory allocation (min/avg/max) = 18.47 | 18.47 | 18.47 Mbytes
Step Density Temp Press 
    1000   0.33123908    391.09832    2694.4904 
    1100   0.33123908    360.08212    275.84597 
    1200   0.33123908    337.73893   -2019.3376 
    1300   0.33123908     308.0031   -4034.1004 
    1400   0.33123908    300.01158   -5092.9479 
    1500   0.33123908    292.09356   -4972.0712 
    1600   0.33123908    287.34311   -4053.8647 
    1700   0.33123908    290.97952   -2324.0239 
    1800   0.33123908    303.60779    7.7482262 
    1900   0.33123908    313.30432    2131.6308 
    2000   0.33123908     299.1086    3720.3161 
    2100   0.33123908    288.52728    4436.8116 
    2200   0.33123908    293.70153    4273.3972 
    2300   0.33123908    303.39896    3308.2806 
    2400   0.33123908     306.9284    1705.4925 
    2500   0.33123908    303.40431    -196.0937 
    2600   0.33123908    298.99721   -1914.3984 
    2700   0.33123908    287.14026   -3288.4094 
    2800   0.33123908    291.83136   -4174.0546 
    2900   0.33123908    300.13096   -4026.3919 
    3000   0.33123908     299.0995   -3248.9202 
    3100   0.33123908    293.14801   -2120.3428 
    3200   0.33123908    291.61093   -353.64347 
    3300   0.33123908    300.23757    1095.0242 
    3400   0.33123908     305.3546    2346.2666 
    3500   0.33123908    302.17687    3429.5165 
    3600   0.33123908    291.36719    3562.2181 
    3700   0.33123908    292.72403    3096.6608 
    3800   0.33123908     291.2205    2177.7658 
    3900   0.33123908     305.3457    846.07588 
    4000   0.33123908    305.39956   -814.84524 
    4100   0.33123908    293.30018   -2183.2848 
    4200   0.33123908    293.73521   -3261.9664 
    4300   0.33123908    294.32866   -3477.1629 
    4400   0.33123908    300.44181   -3349.0261 
    4500   0.33123908    299.91166   -2622.6979 
    4600   0.33123908    296.74405     -1166.98 
    4700   0.33123908    295.85851    298.81443 
    4800   0.33123908     300.4846    1686.8227 
    4900   0.33123908    299.35727    2642.1253 
    5000   0.33123908    302.14015    2995.7166 
    5100   0.33123908    295.11119    2844.4667 
    5200   0.33123908    293.48102     2296.002 
    5300   0.33123908    298.62165    1046.1132 
    5400   0.33123908    300.03018   -318.01369 
    5500   0.33123908    301.94608   -1489.3538 
    5600   0.33123908    294.83783   -2419.5035 
    5700   0.33123908    297.46498   -3061.6525 
    5800   0.33123908    294.86717   -3144.7032 
    5900   0.33123908    296.87106     -2450.19 
    6000   0.33123908    295.44644    -1367.426 
Loop time of 37.0599 on 1 procs for 5000 steps with 8232 atoms

Performance: 11.657 ns/day, 2.059 hours/ns, 134.917 timesteps/s
90.6% CPU use with 1 MPI tasks x no OpenMP threads

MPI task timing breakdown:
Section |  min time  |  avg time  |  max time  |%varavg| %total
---------------------------------------------------------------
Pair    | 24.448     | 24.448     | 24.448     |   0.0 | 65.97
Bond    | 7.6923     | 7.6923     | 7.6923     |   0.0 | 20.76
Neigh   | 2.7782     | 2.7782     | 2.7782     |   0.0 |  7.50
Comm    | 0.48904    | 0.48904    | 0.48904    |   0.0 |  1.32
Output  | 0.51988    | 0.51988    | 0.51988    |   0.0 |  1.40
Modify  | 0.88112    | 0.88112    | 0.88112    |   0.0 |  2.38
Other   |            | 0.2518     |            |       |  0.68

Nlocal:    8232 ave 8232 max 8232 min
Histogram: 1 0 0 0 0 0 0 0 0 0
Nghost:    9216 ave 9216 max 9216 min
Histogram: 1 0 0 0 0 0 0 0 0 0
Neighs:    369200 ave 369200 max 369200 min
Histogram: 1 0 0 0 0 0 0 0 0 0

Total # of neighbors = 369200
Ave neighs/atom = 44.8494
Ave special neighs/atom = 4
Neighbor list builds = 147
Dangerous builds = 0
Setting up Verlet run ...
  Unit style    : metal
  Current step  : 6000
  Time step     : 0.001
Per MPI rank memory allocation (min/avg/max) = 18.47 | 18.47 | 18.47 Mbytes
Step Density Temp Press 
    6000   0.33123908    295.44644    -1367.426 
    6100   0.33323449    303.75261   -405.64939 
    6200   0.33524596    301.58966    679.60582 
    6300   0.33727365    298.61551     1815.402 
    6400   0.33931773    300.23201    2505.8016 
    6500   0.34137835      297.061    2576.9817 
    6600    0.3434557     298.9595         2027 
    6700   0.34554994    302.99017    1378.4787 
    6800   0.34766124    299.75076    380.66653 
    6900   0.34978977    299.85606   -768.91032 
    7000   0.35193571    294.96201   -1793.4413 
    7100   0.35409924    295.15982   -2504.7603 
    7200   0.35628055    299.47478   -2833.9791 
    7300    0.3584798    300.72066   -2526.4907 
    7400    0.3606972    295.75983   -1822.3302 
    7500   0.36293292    295.82353   -996.94763 
    7600   0.36518715    299.78771    55.722958 
    7700    0.3674601     300.8968    1089.4374 
    7800   0.36975194    301.34819    1727.5057 
    7900   0.37206288    301.12732    2266.2416 
    8000   0.37439313     298.2715    2177.3967 
    8100   0.37674287     295.2688    1788.8122 
    8200   0.37911231    295.65552    984.28661 
    8300   0.38150167    299.39451   -126.35394 
    8400   0.38391114     300.4534   -1144.9184 
    8500   0.38634096     295.8822   -1911.9454 
    8600   0.38879131    295.51347   -2533.7433 
    8700   0.39126244    295.32171   -2621.5253 
    8800   0.39375455    299.22065   -2237.1924 
    8900   0.39626787    300.03382    -1535.866 
    9000   0.39880262    297.22296   -726.06846 
    9100   0.40135904    296.28567    278.04781 
    9200   0.40393736      299.051    1432.3813 
    9300    0.4065378    296.81125    1890.2489 
    9400   0.40916062    297.87033    1902.8126 
    9500   0.41180605    299.80155    1855.2492 
    9600   0.41447433    301.24937    1120.5224 
    9700   0.41716571    303.87531    456.77351 
    9800   0.41988045      297.534   -303.60751 
    9900   0.42261879     295.0286   -1416.0542 
   10000     0.425381    293.57449   -2009.5662 
   10100   0.42816732    296.61163   -2276.5374 
   10200   0.43097804    297.40117   -2517.4268 
   10300   0.43381341     302.0729   -2125.2859 
   10400   0.43667371    296.52058    -1228.631 
   10500   0.43955921    293.93569   -329.68899 
   10600   0.44247019    299.08487    623.27045 
   10700   0.44540693    300.66929    1357.8797 
   10800   0.44836972    297.86081    1831.1655 
   10900   0.45135884    299.19135    1831.8239 
   11000   0.45437459    296.00375    1489.5569 
   11100   0.45741727    293.81827    1063.7339 
   11200   0.46048717    299.86576    278.30133 
   11300   0.46358461    301.39462   -702.88864 
   11400   0.46670989    296.37954   -1266.8332 
   11500   0.46986332    295.50825   -1830.8929 
   11600   0.47304523    295.46764   -2291.0653 
   11700   0.47625593     293.1991   -2061.3567 
   11800   0.47949576    299.65328   -1637.9583 
   11900   0.48276504    299.53336   -979.28728 
   12000    0.4860641    295.10554   -114.76076 
   12100    0.4893933    295.05052    808.91817 
   12200   0.49275297    299.91695    1302.3016 
   12300   0.49614346    300.71382    1678.6139 
   12400   0.49956512    298.72803     1628.753 
   12500   0.50301833    294.67427    1510.6666 
   12600   0.50650343    295.51381    1038.1908 
   12700    0.5100208    302.78306   -45.203245 
   12800   0.51357082    299.95782   -847.27147 
   12900   0.51715386    295.25157   -1394.3805 
   13000    0.5207703    291.11976   -1614.5884 
   13100   0.52442055    296.45165   -1955.1209 
   13200   0.52810499     301.7147   -2258.4526 
   13300   0.53182403    299.40722   -1875.6384 
   13400   0.53557806    293.12055   -1014.5123 
   13500   0.53936752    295.63351   -71.589716 
   13600    0.5431928    299.46888    851.23322 
   13700   0.54705435    303.36201     1419.959 
   13800   0.55095259     300.4187    1525.2859 
   13900   0.55488795    298.65886    1693.1243 
   14000   0.55886088    296.96044    1540.2655 
   14100   0.56287182    298.65498    690.55271 
   14200   0.56692125    299.65705    179.39944 
   14300    0.5710096    297.27423   -538.39659 
   14400   0.57513737    295.48528   -1321.8674 
   14500   0.57930501     296.0046   -2040.0203 
   14600   0.58351302    301.37414   -2208.2669 
   14700   0.58776189    296.84206   -1652.4187 
   14800   0.59205211     296.6925   -1204.9224 
   14900   0.59638418    297.56123   -502.34712 
   15000   0.60075862    296.09488    151.57779 
   15100   0.60517594     301.4049    526.92192 
   15200   0.60963668    300.29549    1106.2271 
   15300   0.61414137    301.30253     1661.497 
   15400   0.61869054    297.53379     1615.269 
   15500   0.62328476    298.58956    1360.9994 
   15600   0.62792458    295.80691    1061.0478 
   15700   0.63261056    302.84644    584.23368 
   15800   0.63734329    298.58366   -237.75376 
   15900   0.64212335    294.81935   -935.93283 
   16000   0.64695132    296.33571   -985.17019 
Loop time of 94.0833 on 1 procs for 10000 steps with 8232 atoms

Performance: 9.183 ns/day, 2.613 hours/ns, 106.289 timesteps/s
90.2% CPU use with 1 MPI tasks x no OpenMP threads

MPI task timing breakdown:
Section |  min time  |  avg time  |  max time  |%varavg| %total
---------------------------------------------------------------
Pair    | 68.59      | 68.59      | 68.59      |   0.0 | 72.90
Bond    | 15.607     | 15.607     | 15.607     |   0.0 | 16.59
Neigh   | 5.2521     | 5.2521     | 5.2521     |   0.0 |  5.58
Comm    | 1.1193     | 1.1193     | 1.1193     |   0.0 |  1.19
Output  | 1.0511     | 1.0511     | 1.0511     |   0.0 |  1.12
Modify  | 1.9331     | 1.9331     | 1.9331     |   0.0 |  2.05
Other   |            | 0.5307     |            |       |  0.56

Nlocal:    8232 ave 8232 max 8232 min
Histogram: 1 0 0 0 0 0 0 0 0 0
Nghost:    11730 ave 11730 max 11730 min
Histogram: 1 0 0 0 0 0 0 0 0 0
Neighs:    673380 ave 673380 max 673380 min
Histogram: 1 0 0 0 0 0 0 0 0 0

Total # of neighbors = 673380
Ave neighs/atom = 81.8003
Ave special neighs/atom = 4
Neighbor list builds = 224
Dangerous builds = 0
Setting up Verlet run ...
  Unit style    : metal
  Current step  : 16000
  Time step     : 0.001
Per MPI rank memory allocation (min/avg/max) = 19.8 | 19.8 | 19.8 Mbytes
Step Density Temp Press 
   16000   0.64695132    296.33571   -591.05695 
   16100   0.64695132      296.866   -814.61926 
   16200   0.64695132     298.7055   -1160.5655 
   16300   0.64695132    297.71727   -851.39512 
   16400   0.64695132    303.12172   -304.30271 
   16500   0.64695132    303.77762     455.2769 
   16600   0.64695132    296.96981     821.4287 
   16700   0.64695132    300.32756    1055.2823 
   16800   0.64695132    298.67138    1620.0832 
   16900   0.64695132    298.61118    1831.0442 
   17000   0.64695132    296.08183    1309.1603 
   17100   0.64695132    306.12025    1054.0024 
   17200   0.64695132     296.3697    709.59703 
   17300   0.64695132    297.44455    320.44375 
   17400   0.64695132    299.97795   -259.70883 
   17500   0.64695132    303.16497   -666.06016 
   17600   0.64695132    301.16854   -776.63677 
   17700   0.64695132    295.76662   -833.89074 
   17800   0.64695132    295.54919   -848.31647 
   17900   0.64695132     297.1491   -717.06674 
   18000   0.64695132    304.06806   -289.82681 
   18100   0.64695132    298.93167    267.88246 
   18200   0.64695132    298.56327    910.12699 
   18300   0.64695132    297.54186    1262.6555 
   18400   0.64695132     293.7347    1235.0427 
   18500   0.64695132    293.69107    1251.3396 
   18600   0.64695132    295.25957    903.69876 
   18700   0.64695132    294.08943     676.0444 
   18800   0.64695132    299.60793    527.04308 
   18900   0.64695132    296.64551    96.495214 
   19000   0.64695132    295.43336   -467.84724 
   19100   0.64695132    291.84613   -729.70193 
   19200   0.64695132    291.15199   -870.55661 
   19300   0.64695132    295.81448   -798.61652 
   19400   0.64695132    299.00211   -685.85353 
   19500   0.64695132    300.42902   -366.95968 
   19600   0.64695132    294.87533    568.38885 
   19700   0.64695132    296.39665    825.77096 
   19800   0.64695132    296.54721    652.42547 
   19900   0.64695132     300.5255     1116.533 
   20000   0.64695132    299.43048    1517.2535 
   20100   0.64695132    299.25919    995.17381 
   20200   0.64695132     295.3787    728.87779 
   20300   0.64695132    295.94143    381.27228 
   20400   0.64695132    298.68925    85.922877 
   20500   0.64695132    303.02054   -295.32006 
   20600   0.64695132    297.24875   -861.25925 
   20700   0.64695132    295.43665   -835.13616 
   20800   0.64695132    295.57588   -963.94984 
   20900   0.64695132    297.08388   -573.56041 
   21000   0.64695132    303.54957   -320.95625 
   21100   0.64695132     297.4954    180.32991 
   21200   0.64695132    293.86245    816.82724 
   21300   0.64695132    295.96507    881.62533 
   21400   0.64695132    300.81074    1054.3211 
   21500   0.64695132    300.77484    702.69117 
   21600   0.64695132    303.49119    816.37727 
   21700   0.64695132    300.25163    846.20159 
   21800   0.64695132    299.74916    514.27676 
   21900   0.64695132    296.00366    217.87276 
   22000   0.64695132    296.07135    -1.503973 
   22100   0.64695132    302.54178   -316.28565 
   22200   0.64695132    302.07664    -249.2513 
   22300   0.64695132    296.97222   -440.33553 
   22400   0.64695132    298.43282   -558.17299 
   22500   0.64695132     295.9646   -94.861232 
   22600   0.64695132    296.18279    58.630669 
   22700   0.64695132    300.39934   -15.772726 
   22800   0.64695132    301.68329    517.12671 
   22900   0.64695132    298.24602    866.71154 
   23000   0.64695132    296.50075    804.34474 
   23100   0.64695132    299.78622     690.7211 
   23200   0.64695132    296.42103    273.82146 
   23300   0.64695132    295.08643     41.10443 
   23400   0.64695132     293.8387    353.80672 
   23500   0.64695132    299.48992   -166.77429 
   23600   0.64695132    295.64864   -189.45517 
   23700   0.64695132    298.45783   -53.274859 
   23800   0.64695132    302.97984   -132.03227 
   23900   0.64695132    297.86785    -102.7562 
   24000   0.64695132    300.22012    -206.3313 
   24100   0.64695132     296.4618    5.7819795 
   24200   0.64695132    299.87635   -17.774521 
   24300   0.64695132    297.92928    105.77948 
   24400   0.64695132    302.55642    250.79883 
   24500   0.64695132    298.63296    250.20149 
   24600   0.64695132    296.21397    219.35055 
   24700   0.64695132    299.79811    292.44979 
   24800   0.64695132    299.79719     566.3451 
   24900   0.64695132     301.4453    494.96745 
   25000   0.64695132    302.39105    420.44079 
   25100   0.64695132     299.8978    109.66248 
   25200   0.64695132    295.73063    2.8370875 
   25300   0.64695132    294.75095   -107.43527 
   25400   0.64695132    300.21763   -85.673654 
   25500   0.64695132    301.99053    212.10001 
   25600   0.64695132    300.28028    148.00014 
   25700   0.64695132    296.38448    81.821045 
   25800   0.64695132    295.85207    100.16984 
   25900   0.64695132    295.09745     226.2024 
   26000   0.64695132    298.06831    743.97836 
Loop time of 114.025 on 1 procs for 10000 steps with 8232 atoms

Performance: 7.577 ns/day, 3.167 hours/ns, 87.700 timesteps/s
91.7% CPU use with 1 MPI tasks x no OpenMP threads

MPI task timing breakdown:
Section |  min time  |  avg time  |  max time  |%varavg| %total
---------------------------------------------------------------
Pair    | 89.064     | 89.064     | 89.064     |   0.0 | 78.11
Bond    | 15.406     | 15.406     | 15.406     |   0.0 | 13.51
Neigh   | 5.0796     | 5.0796     | 5.0796     |   0.0 |  4.45
Comm    | 1.1566     | 1.1566     | 1.1566     |   0.0 |  1.01
Output  | 1.0133     | 1.0133     | 1.0133     |   0.0 |  0.89
Modify  | 1.7641     | 1.7641     | 1.7641     |   0.0 |  1.55
Other   |            | 0.5408     |            |       |  0.47

Nlocal:    8232 ave 8232 max 8232 min
Histogram: 1 0 0 0 0 0 0 0 0 0
Nghost:    11535 ave 11535 max 11535 min
Histogram: 1 0 0 0 0 0 0 0 0 0
Neighs:    674596 ave 674596 max 674596 min
Histogram: 1 0 0 0 0 0 0 0 0 0

Total # of neighbors = 674596
Ave neighs/atom = 81.948
Ave special neighs/atom = 4
Neighbor list builds = 167
Dangerous builds = 0
Setting up Verlet run ...
  Unit style    : metal
  Current step  : 26000
  Time step     : 0.001
Per MPI rank memory allocation (min/avg/max) = 19.8 | 19.8 | 19.8 Mbytes
Step Density Temp Press 
   26000   0.64695132    298.06831    743.97836 
   26100   0.64596976    299.43198    456.35338 
   26200   0.64423614    300.04746    245.35151 
   26300   0.64160725     301.8357    360.35107 
   26400   0.63826136    302.15913    287.86123 
   26500   0.63571534    299.43217    186.87925 
   26600   0.63399781    296.31288    61.195161 
   26700   0.63335815     299.0886   -217.28961 
   26800   0.63388825    298.43506    -127.8761 
   26900   0.63452923    299.64033    35.127523 
   27000    0.6354127     293.6608   -28.254709 
   27100    0.6353673    293.03884   -317.26149 
   27200   0.63497369    297.82868   -164.73449 
   27300   0.63532413    296.98706    17.789869 
   27400   0.63550678    297.54661     77.45585 
   27500   0.63543846    301.40834   -273.01768 
   27600   0.63589189    297.02289   -286.65393 
   27700   0.63726123    295.30397    47.291583 
   27800   0.63783098    296.78338    76.637201 
   27900   0.63756327    300.35727     246.3381 
   28000   0.63658021    295.70972    243.00031 
   28100   0.63464314    297.20804    259.79417 
   28200   0.63322341    293.45781    286.87456 
   28300   0.63261942    298.04511    35.498052 
   28400   0.63315309    302.59347    201.70244 
   28500   0.63362439    301.41027    451.16749 
   28600   0.63412461    295.41842    460.04869 
   28700   0.63358516    301.73544   -160.83277 
   28800   0.63381823     302.9899    83.085061 
   28900   0.63569521    297.01245    210.60132 
   29000   0.63680334    296.21305   -355.25828 
   29100   0.63712119    299.32077    23.801751 
   29200   0.63622068    301.26958   -78.509576 
   29300   0.63516308    302.65623    85.281252 
   29400   0.63459695    298.11121    133.92061 
   29500   0.63476502    296.92148   -150.89598 
   29600    0.6354883     295.4262    -73.44073 
   29700   0.63592774    298.43002    38.976476 
   29800   0.63506545    302.50703    94.516359 
   29900    0.6344275    302.48414     325.2072 
   30000   0.63370911    295.17219    152.77541 
   30100   0.63245909    298.27137   -63.487435 
   30200     0.631671    297.86842    36.655006 
   30300   0.63151763    299.77049    58.985682 
   30400   0.63188262    301.03797   -171.35668 
   30500     0.633443    300.23663    171.29897 
   30600   0.63499755    295.60573    26.944957 
   30700   0.63545168    297.15612   -162.76132 
   30800   0.63510719    296.44522     100.0201 
   30900   0.63498092    295.60898    27.273118 
   31000   0.63419608    299.64526   -393.16997 
   31100   0.63362191    296.64246   -96.878559 
   31200   0.63306958    295.21155    70.622416 
   31300   0.63272118    293.97145   -77.521377 
   31400   0.63321987    296.28398    151.50363 
   31500   0.63385675     300.7767    124.76961 
   31600    0.6336806    299.31959    294.75536 
   31700   0.63255645    300.05967    170.98483 
   31800   0.63214049    296.84733   -135.98086 
   31900   0.63236051    292.79231    -142.1635 
   32000   0.63341067    300.87624    246.42878 
   32100   0.63525684    300.61417    98.065613 
   32200   0.63718937    297.58105    162.10788 
   32300   0.63822318    296.89919    13.982566 
   32400   0.63873254    297.21891    56.826805 
   32500   0.63755624     302.4416   -234.07503 
   32600   0.63640573    300.13687    88.186686 
   32700   0.63420627    301.50658   -227.54425 
   32800   0.63251821    295.15768   -446.17103 
   32900    0.6321404    291.92188   -164.41436 
   33000   0.63288647    300.53507   -4.5315854 
   33100   0.63294463    300.06836   -229.65436 
   33200   0.63287417     298.2472   -48.901362 
   33300   0.63222118    296.16965    101.45237 
   33400   0.63068845    294.75902   -50.750842 
   33500   0.62961932    298.69883    175.02403 
   33600   0.62942242    302.58683   -34.007814 
   33700   0.63064505    297.88439   -72.503828 
   33800   0.63172208    297.90604    393.23341 
   33900   0.63325348    297.60011     382.6989 
   34000   0.63528025    297.39646    258.51327 
   34100   0.63677787    298.24774    71.726712 
   34200   0.63745824    297.01732   -17.154306 
   34300   0.63792868    294.92739    -13.23288 
   34400   0.63876503    294.67818   -93.484463 
   34500   0.63955537    295.55743   -644.39265 
   34600   0.63973691     299.1993   -157.08356 
   34700   0.63896925    298.21877    60.002906 
   34800   0.63731578    297.93367   -296.73657 
   34900   0.63630176    292.82128   -386.71028 
   35000   0.63655284    296.96564   -242.95001 
   35100   0.63780578    298.80665    167.11115 
   35200   0.63921555    297.85334    597.58239 
   35300   0.63988689    295.04218    101.27288 
   35400   0.64072184    294.63571    137.17918 
   35500   0.64115876     294.2915    271.95689 
   35600   0.64199118    295.67863    127.06886 
   35700   0.64298864     300.2808    112.64774 
   35800   0.64208372     301.8124   -224.85288 
   35900   0.64040559    298.47603    46.796435 
   36000   0.63856446    293.04437    175.74584 
   36100   0.63655024    296.58777   -68.180783 
   36200   0.63440978    300.39616   -84.677307 
   36300   0.63206256    299.37428   -218.30329 
   36400   0.63116832     302.0683    211.29196 
   36500   0.63175418    296.55615    378.47475 
   36600   0.63330935     297.8242    9.4001745 
   36700   0.63589034    299.84268   -68.854651 
   36800   0.63931176    299.04191    138.44787 
   36900   0.64188993    299.63182    263.69312 
   37000   0.64249298    291.85466    29.805203 
   37100   0.64138039    297.97646   -233.69492 
   37200   0.64047829    297.40382    57.044644 
   37300   0.63992247    299.89694    467.15827 
   37400   0.63986354    299.33104    461.00647 
   37500   0.63972412    296.72067   -48.028922 
   37600   0.64028059    296.37094    68.666105 
   37700   0.64093717    297.02994    279.98152 
   37800   0.64103286    298.45241    192.00755 
   37900   0.64054385     294.7978    28.591995 
   38000   0.63989654    296.21698   -9.2113595 
   38100   0.63866145    303.21132   -248.31427 
   38200   0.63768429    299.93399   -106.80306 
   38300    0.6365269     296.5823      -197.66 
   38400   0.63535359    292.17049   -222.32769 
   38500   0.63526628    299.52457    237.40251 
   38600   0.63615794     298.8575    67.940991 
   38700   0.63674071    299.90864   -123.85847 
   38800   0.63704952    301.99899   -46.196297 
   38900    0.6379268    297.36615    291.33289 
   39000   0.63847147    297.94661    456.28653 
   39100   0.63768763      296.269    276.98726 
   39200   0.63596244    299.76477    110.97972 
   39300   0.63400681    302.83009    168.65014 
   39400   0.63317189    296.67665   -167.87699 
   39500   0.63390562    294.47739   -164.17518 
   39600   0.63447327    297.45127    117.38073 
   39700   0.63463925    302.02714   -83.923671 
   39800   0.63522656    296.03472   -191.00278 
   39900   0.63576547    297.52267   -367.43923 
   40000   0.63726382    296.32381   -363.28376 
   40100   0.63913149    299.83271    193.12872 
   40200   0.64012954     299.1119    409.15963 
   40300   0.63938444    303.77896   -124.83791 
   40400   0.63845016    295.50875    155.50173 
   40500   0.63826278    297.02804    289.29476 
   40600   0.63880887     296.4063   -38.385955 
   40700   0.63978635     302.4631    104.03077 
   40800   0.64047128    302.49677     49.90398 
   40900   0.64072401    299.50554   -82.453767 
   41000   0.64104359    297.07911   -83.446175 
   41100   0.64086974    300.85147    131.28844 
   41200   0.64016418    300.27974   -184.70606 
   41300    0.6391701    296.64046   -63.243345 
   41400   0.63782568    299.08746    256.88125 
   41500   0.63741778    302.55216    162.41983 
   41600   0.63833681     297.3092    12.417309 
   41700   0.63909685    295.50601   -260.59541 
   41800   0.64021715    294.14575    333.67286 
   41900   0.64079649    298.29958    408.51911 
   42000   0.64107875     297.1178    217.31461 
   42100   0.63998616    293.93954   -207.48258 
   42200   0.63823526    300.41598   -93.697496 
   42300   0.63692506    298.21519   -43.670998 
   42400   0.63665804    299.09625   -3.3407849 
   42500   0.63747513    293.52618    102.30422 
   42600   0.63872296    297.84513   -140.62068 
   42700   0.64026823    300.21474    6.7956763 
   42800     0.641655    298.13293    148.22729 
   42900   0.64168026    298.01671   -43.994822 
   43000   0.64087296    298.73548   -3.3155747 
   43100   0.63935442    302.11239   -43.299545 
   43200   0.63895772    297.86624    251.03421 
   43300   0.63924179    301.13524    15.510029 
   43400    0.6410064    305.79247   -297.51212 
   43500   0.64286755    302.06991   -264.56644 
   43600   0.64346025    297.52016    92.183393 
   43700   0.64198184    297.29446    205.82559 
   43800   0.63970733     298.4409  -0.89270835 
   43900    0.6384314    299.10159    91.369313 
   44000   0.63747936    302.71868    216.63374 
   44100   0.63697928    297.10313    342.59092 
   44200   0.63692887    299.48009   -42.273701 
   44300   0.63806554     299.5747   -179.16439 
   44400   0.64010873    297.87267   -189.46238 
   44500   0.64245411      294.128   -345.29524 
   44600   0.64343357    298.17223   -274.11003 
   44700   0.64392919     300.6499   -109.17365 
   44800    0.6437535    299.95273   -91.354072 
   44900   0.64276732    293.45788   -94.984081 
   45000   0.64077901    293.97992   -178.89237 
   45100   0.63903074    297.64107   -82.308696 
   45200   0.63831167    299.28706    197.93108 
   45300   0.63769825    302.12871    145.12866 
   45400   0.63745959     301.9576    266.33743 
   45500   0.63745556    293.90324    385.89069 
   45600   0.63738719      292.243    381.01832 
   45700   0.63764395    297.97886   -149.11298 
   45800   0.63805657     301.2108   -244.60028 
   45900   0.63744414    297.23503   -14.485173 
   46000   0.63748596    301.24985   -73.176847 
   46100   0.63868414    297.69285   -299.98455 
   46200   0.64002498    300.46214   -474.46519 
   46300   0.64172282    297.83016   -343.46231 
   46400   0.64277345    295.02943   -409.14976 
   46500   0.64323976    289.95673   -488.61315 
   46600   0.64305181    297.35621   -245.36444 
   46700   0.64250588    298.10912   -92.268815 
   46800   0.64172732    297.59336   -203.96715 
   46900    0.6412417    294.20164    90.930245 
   47000   0.64124753    297.59075    255.24715 
   47100   0.64075435    297.16413     36.42287 
   47200   0.64025334    297.45047    105.41508 
   47300   0.63999314    300.23509      618.104 
   47400   0.63901252    302.01176    356.80743 
   47500   0.63776119    297.03271     25.96489 
   47600   0.63613723    296.44576   -162.60262 
   47700   0.63548569    295.89483   -97.235032 
   47800   0.63626879    292.98029    197.24428 
   47900   0.63688203    298.18089    58.660614 
   48000   0.63697739    300.25288   -110.58151 
   48100   0.63753758    297.63128   -304.77947 
   48200   0.63941195    298.38146   -98.770134 
   48300   0.64240082    298.18154   -178.44167 
   48400   0.64616219     294.1172    22.992467 
   48500    0.6491609    300.28304   -91.810398 
   48600   0.65059599    298.10453   -60.238597 
   48700   0.65099429    296.47317    370.00188 
   48800   0.65020512    298.54747   -33.910006 
   48900   0.64905079    299.58361   -129.90255 
   49000   0.64730594    300.80002   -89.597886 
   49100   0.64494588    298.24748    49.951988 
   49200   0.64234479    298.81789    302.73143 
   49300     0.640368    300.74004    261.44119 
   49400    0.6387184     299.1592   -9.2382019 
   49500   0.63825593    296.82453   -5.5508311 
   49600   0.63878369    298.11537   -269.12955 
   49700   0.64031832     294.3167   -109.21585 
   49800   0.64126539    291.45938   -84.340191 
   49900    0.6419677    291.20075   -337.98623 
   50000   0.64231864    299.35018    30.665984 
   50100    0.6423979     298.7076    83.114038 
   50200   0.64230757    297.81199   -3.1529584 
   50300   0.64229148     298.6053   -124.46647 
   50400   0.64342101    295.06392    185.65475 
   50500   0.64509942    290.65703    487.30819 
   50600   0.64657078    298.69942    742.38538 
   50700   0.64774653    299.60554    394.10182 
   50800   0.64794735    298.42357    298.12461 
   50900   0.64716571       300.28      557.946 
   51000   0.64692124     292.7651    257.19454 
   51100   0.64697646    294.56468   -135.99484 
   51200   0.64712886    302.17635    212.58474 
   51300   0.64667983     301.0908   -29.254608 
   51400   0.64603956    297.44422    10.457276 
   51500   0.64477727    297.44861    71.096193 
   51600   0.64325587    301.63726   -38.434311 
   51700   0.64172296    301.82214   -335.73595 
   51800   0.64109387    295.97643   -24.234006 
   51900   0.64132039     294.2827   -241.94293 
   52000   0.64221089    296.24918   -298.59446 
   52100   0.64324201    302.28742    83.088881 
   52200   0.64412697    301.31388    89.801891 
   52300   0.64399798    296.91362    171.22281 
   52400   0.64282069    292.42317    180.27059 
   52500   0.64288625    292.89297    265.00875 
   52600   0.64421389    298.23328    345.83786 
   52700   0.64605772    297.41277     457.1593 
   52800   0.64768255     297.0694    149.95386 
   52900    0.6492083    296.62185    23.575479 
   53000   0.64994428    297.16963   -76.235973 
   53100   0.65086365    297.91357    44.162268 
   53200   0.65153653    296.22935   -328.37915 
   53300   0.65170378    295.49866   -312.22944 
   53400   0.65055238    298.18276   -95.694607 
   53500   0.64781937     298.1718    3.7555276 
   53600   0.64587104    298.49404   -290.07601 
   53700   0.64491867    294.01708   -26.555183 
   53800   0.64469686    294.33449     148.7667 
   53900   0.64493634     294.8752    397.99401 
   54000   0.64537111    300.11254     459.0562 
   54100   0.64522726    298.87043    173.55338 
   54200   0.64458699    298.52358    6.3876767 
   54300   0.64460089    291.55122    370.33588 
   54400   0.64561577    297.92886    262.78634 
   54500   0.64676196    298.79024    99.810348 
   54600   0.64818228    301.15258    288.40217 
   54700   0.64889055    297.40298    320.93372 
   54800   0.64782072    296.93115    -50.54327 
   54900   0.64652005    297.72106   -238.25688 
   55000   0.64566531    291.45828   -394.33655 
   55100   0.64473969    295.61225   -515.17662 
   55200   0.64473105     296.3723   -175.27639 
   55300   0.64570602    294.74217    40.754328 
   55400   0.64484138    298.17497   -166.95803 
   55500   0.64212666    298.36466   -93.198951 
   55600   0.63964193    302.76591    96.463192 
   55700   0.63765019    297.62977    73.344979 
   55800   0.63641935    298.44358     31.76227 
   55900   0.63640304    297.97609    31.198859 
   56000   0.63794303    296.30432    63.710748 
   56100   0.64059563    297.33346      385.638 
   56200   0.64290911    303.00864    31.719021 
   56300   0.64484879    303.35699   -217.71186 
   56400   0.64585429    300.03666    208.57009 
   56500   0.64690387    297.01164    152.01604 
   56600    0.6481285    294.54659   -142.23994 
   56700   0.64789068    298.55884   -327.99652 
   56800   0.64725217      299.387   -115.58879 
   56900   0.64608137    301.20804    102.56668 
   57000   0.64482731    298.30255     123.8144 
   57100   0.64459097    290.18603   -392.74915 
   57200   0.64454572    295.21416   -254.83731 
   57300   0.64434212    297.97183    223.30144 
   57400   0.64387956    299.84163   -218.91684 
   57500   0.64425899    297.49674     72.11907 
   57600   0.64502137    295.60006    128.79222 
   57700   0.64520357    297.49971   -42.144389 
   57800   0.64509969    296.06147   -107.27397 
   57900   0.64459457     298.1577   -236.54883 
   58000   0.64490908    296.23329   -416.27257 
   58100   0.64500685     298.6774    12.799501 
   58200   0.64490204    303.47763    200.38703 
   58300    0.6446454    299.26884   -87.000333 
   58400   0.64434905     296.0721   -47.840225 
   58500   0.64418166     294.4947   -259.13129 
   58600   0.64366627    296.19195   -63.313302 
   58700   0.64271005    299.91686    121.48453 
   58800   0.64209091    297.37459    263.47124 
   58900   0.64102577    298.45371    -179.3859 
   59000   0.64160724    296.06246    167.26579 
   59100   0.64296112    298.97655    254.37871 
   59200   0.64380688    302.78134    173.58629 
   59300   0.64389699    300.87474    27.414298 
   59400   0.64378076    295.81334    1.8042023 
   59500   0.64428183    293.28534    183.10855 
   59600   0.64506796      294.309    321.01128 
   59700    0.6462048    299.78752    226.08134 
   59800   0.64691408    302.37892    533.66407 
   59900   0.64619548    299.36632    479.51436 
   60000   0.64543658    294.61187    260.22522 
   60100   0.64447909    298.22693   -124.66839 
   60200   0.64401481    299.05953   -2.6915575 
   60300   0.64299574     301.9663    353.27172 
   60400   0.64237388    299.08618    71.968159 
   60500   0.64215408    294.67134   -140.21726 
   60600   0.64239414    294.69929   -279.95823 
   60700   0.64422132    299.40319   -165.13148 
   60800   0.64645399    300.21847    81.164458 
   60900   0.64677615    299.78287   -15.666586 
   61000   0.64623982    298.05718    212.63757 
   61100   0.64580519    296.39553   -122.83074 
   61200   0.64639082    296.80847    -375.4368 
   61300   0.64717274    296.62457   -1.3197638 
   61400    0.6471119    300.39822    471.45009 
   61500   0.64547168    300.61028    287.52087 
   61600   0.64277901    298.03746   -405.90883 
   61700   0.64111625    296.55645   -100.77361 
   61800   0.63986466    297.46425    103.75654 
   61900   0.63926915    304.00121   -131.57407 
   62000   0.64006205    302.36128     205.8287 
   62100   0.64128563     299.2554      278.881 
   62200   0.64242083    296.73698    247.91681 
   62300   0.64368058    298.58118    63.923873 
   62400   0.64495971    298.67719    -212.2714 
   62500   0.64620541    299.62958    162.91699 
   62600   0.64737549    295.56426    172.08802 
   62700    0.6485898    292.39446    168.38088 
   62800   0.64903412    296.10452     69.41561 
   62900   0.64873189    300.10475   -74.377195 
   63000    0.6483304    298.21325    101.51212 
   63100   0.64677835    298.99016    50.428015 
   63200   0.64519852    300.41735   -406.80356 
   63300   0.64492439    293.77177    -248.9509 
   63400    0.6466179    293.86948    244.04674 
   63500   0.64938203    301.65587     158.2105 
   63600   0.65212186      304.333   -153.47045 
   63700   0.65377784     299.3962   -19.887916 
   63800   0.65330744    300.07927    22.066321 
   63900   0.65227701    299.39986    224.63188 
   64000    0.6500181    300.30209    150.44267 
   64100    0.6469351    297.89028    97.431843 
   64200     0.644198    295.66192   -322.07186 
   64300   0.64216362     300.4893   -157.66048 
   64400   0.64033432    298.55124    108.05453 
   64500   0.63821164    296.79042    32.499285 
   64600   0.63606924    294.37976   -300.17179 
   64700    0.6342472    296.67621   -496.62662 
   64800   0.63275729    295.62256   -19.285662 
   64900   0.63132857    301.19315   -64.015948 
   65000   0.63076094    301.28099   -455.05742 
   65100    0.6316891    300.29085   -310.34447 
   65200   0.63400391    296.02044   -104.86048 
   65300   0.63711381    298.40336    295.38705 
   65400   0.63880591    298.69245   -63.224876 
   65500   0.63844822    296.34243   -44.289832 
   65600   0.63759295     295.1609    119.11411 
   65700   0.63705324    295.67819    43.965496 
   65800   0.63647292    299.17215   -239.31768 
   65900   0.63566538    298.84028   -383.44429 
   66000    0.6357932    295.88453    216.47037 
   66100   0.63618158    299.64261   -32.540655 
   66200   0.63782608    298.28107    150.92939 
   66300   0.63912228    295.68873   -93.414346 
   66400   0.63909739    293.84806    92.495612 
   66500   0.63796607    298.24468   -112.09686 
   66600    0.6372394     296.2278   -103.73874 
   66700   0.63692612    295.75884    18.397066 
   66800   0.63847792    291.98764   -134.97071 
   66900   0.64133326     296.5988     59.33079 
   67000   0.64281658    298.66654     448.5643 
   67100   0.64258763    298.25843    336.13445 
   67200   0.64074703    298.35101    14.544788 
   67300    0.6390385    295.80502    236.29828 
   67400   0.63773637    293.86715   -76.061951 
   67500    0.6381855    298.16879   -140.14595 
   67600   0.63981056    299.53642    164.34233 
   67700   0.64080949    301.80401   -55.089956 
   67800   0.64223654    296.25615   -28.293575 
   67900   0.64334503    298.12175    135.40226 
   68000   0.64466389    297.76338    56.708286 
   68100    0.6450751    298.86555   -58.132369 
   68200   0.64480208    299.07075    272.27211 
   68300   0.64379363    300.51671    338.57927 
   68400   0.64310592    300.71418    -142.3901 
   68500   0.64326747    297.98692    263.48162 
   68600   0.64361559    294.05567   -3.5531354 
   68700   0.64391944    292.59649    -150.5205 
   68800   0.64327758    298.69283    176.98577 
   68900   0.64278783     299.4901    302.03504 
   69000   0.64214098    298.18893    15.253265 
   69100   0.64155042    294.94595    383.17173 
   69200    0.6424033    292.58894    127.57385 
   69300   0.64532278    298.23826   -45.313038 
   69400   0.64827895    300.16796    133.39055 
   69500   0.64988937    301.51337    254.94391 
   69600   0.64979623    297.67321    198.60574 
   69700   0.64823529    299.89444    373.57406 
   69800   0.64661147    298.21083    232.95007 
   69900   0.64506662    298.81592    140.92466 
   70000   0.64435377    303.03334    113.55097 
   70100   0.64353311    298.37015   -192.33402 
   70200   0.64213411    297.33948    15.653748 
   70300   0.64263867    296.02737   -3.9826612 
   70400   0.64468947    297.49238   -368.49228 
   70500    0.6469152    296.69891     249.3237 
   70600   0.64773022    299.18903    494.95994 
   70700     0.646336    300.06714    261.55261 
   70800   0.64368019    294.00058   -218.61417 
   70900   0.64161409    292.66839   -321.00314 
   71000   0.64098222    297.81765   -77.181995 
   71100   0.64107035    297.36474    417.14868 
   71200   0.64115601    300.29879   -72.880934 
   71300    0.6410892    297.92524   -537.02453 
   71400   0.64125935    293.64427   -278.86979 
   71500    0.6419055    294.99962    30.463913 
   71600   0.64346473     299.3385    57.531068 
   71700   0.64587914    304.29108    148.41677 
   71800   0.64830161    301.68525      227.745 
   71900   0.64991841    300.95473    161.40034 
   72000   0.65091594    297.71263    139.67738 
   72100   0.65130387    297.28322    37.017748 
   72200   0.65085656    299.44886   -332.44065 
   72300   0.65021784    300.10347    321.60542 
   72400   0.64914294    301.74856      144.744 
   72500   0.64869075    301.22019   -265.53185 
   72600   0.65011925    290.83832    233.44546 
   72700   0.65067611    294.76638    118.75718 
   72800   0.65031748    300.09977   -112.84327 
   72900    0.6493634    301.00691    3.4074781 
   73000   0.64888347    295.05252    265.93758 
   73100   0.64867576    296.10616   -236.17847 
   73200   0.64920993    298.63992   -44.856927 
   73300   0.64994886      301.777    411.90376 
   73400   0.64944314    298.46318    324.65356 
   73500   0.64798619    295.13176    176.28076 
   73600   0.64581056    298.15278   -307.43756 
   73700   0.64450381    300.51539   -157.67683 
   73800   0.64390915       299.62    342.59881 
   73900   0.64396923    297.78082   -18.050969 
   74000   0.64437927    297.38777   -156.90466 
   74100   0.64449471    298.01408   -115.06846 
   74200   0.64573884    301.89432    14.040657 
   74300   0.64720398    301.26525    98.451569 
   74400   0.64760226    297.23687    196.41494 
   74500    0.6478029    296.96734    76.630092 
   74600   0.64833379    292.98921   -9.2627013 
   74700   0.64829294    301.69583    501.54143 
   74800   0.64739193    304.39963    408.24192 
   74900   0.64640523    296.50936   -153.18034 
   75000   0.64528816    293.90801   -157.78302 
   75100   0.64404193     297.1774   -57.430129 
   75200   0.64334709    302.97137   -30.004598 
   75300   0.64394467    300.48019    156.40734 
   75400   0.64410941    300.87722   -362.84974 
   75500   0.64514931    301.59308   -314.92806 
   75600   0.64795923    297.56196    34.412697 
   75700   0.65129751    293.52372    256.80657 
   75800   0.65303316    300.02762   -12.269612 
   75900   0.65262564    299.74949   -57.544847 
   76000   0.65062561    296.41057    99.237454 
Loop time of 700.68 on 1 procs for 50000 steps with 8232 atoms

Performance: 6.165 ns/day, 3.893 hours/ns, 71.359 timesteps/s
80.9% CPU use with 1 MPI tasks x no OpenMP threads

MPI task timing breakdown:
Section |  min time  |  avg time  |  max time  |%varavg| %total
---------------------------------------------------------------
Pair    | 528.71     | 528.71     | 528.71     |   0.0 | 75.46
Bond    | 103.58     | 103.58     | 103.58     |   0.0 | 14.78
Neigh   | 29.872     | 29.872     | 29.872     |   0.0 |  4.26
Comm    | 7.2025     | 7.2025     | 7.2025     |   0.0 |  1.03
Output  | 5.8952     | 5.8952     | 5.8952     |   0.0 |  0.84
Modify  | 22.031     | 22.031     | 22.031     |   0.0 |  3.14
Other   |            | 3.396      |            |       |  0.48

Nlocal:    8232 ave 8232 max 8232 min
Histogram: 1 0 0 0 0 0 0 0 0 0
Nghost:    11476 ave 11476 max 11476 min
Histogram: 1 0 0 0 0 0 0 0 0 0
Neighs:    679014 ave 679014 max 679014 min
Histogram: 1 0 0 0 0 0 0 0 0 0

Total # of neighbors = 679014
Ave neighs/atom = 82.4847
Ave special neighs/atom = 4
Neighbor list builds = 839
Dangerous builds = 0
Setting up Verlet run ...
  Unit style    : metal
  Current step  : 76000
  Time step     : 0.001
Per MPI rank memory allocation (min/avg/max) = 19.8 | 19.8 | 19.8 Mbytes
Step Density Temp Press 
   76000   0.65062561    296.41057    99.237454 
   76100   0.65099295    294.78577   -46.444085 
   76200   0.65195099    302.32684    80.762005 
   76300   0.65312986    299.99123    154.04027 
   76400   0.65479455    299.76618    182.82784 
   76500    0.6560926    298.22122    48.903707 
   76600   0.65696063    294.42453    88.097195 
   76700   0.65652295    300.32205    222.69063 
   76800   0.65565914     301.2352    224.88289 
   76900   0.65366468    297.21745    420.79019 
   77000   0.65090037    299.09802   -234.36887 
   77100   0.64963742     296.2471   -261.21563 
   77200   0.64962959    294.42545    90.217589 
   77300   0.64978698    296.77801    109.07236 
   77400   0.64931691    303.86521      110.806 
   77500   0.64901935    299.62919    214.26409 
   77600   0.64923977     298.9829   -264.46487 
   77700   0.64962199    295.60694    21.712627 
   77800   0.64894597    301.42869    618.56559 
   77900   0.64667929    302.00238   -54.077999 
   78000   0.64450294    297.24753   -419.53712 
   78100   0.64311798    296.18861    198.58298 
   78200   0.64293331    296.54311   -117.20319 
   78300   0.64382398    298.84417   -182.76968 
   78400   0.64481165    304.24284    203.84281 
   78500   0.64535792    300.35692   -153.35601 
   78600    0.6465289    298.31025    163.70055 
   78700   0.64687308    298.02251    323.86752 
   78800   0.64715989    296.56133   -106.64416 
   78900   0.64700564    294.62523   -328.37541 
   79000   0.64660346    303.43619   -17.427064 
   79100   0.64618834    298.62125   -3.9796063 
   79200   0.64600004    298.08071    174.80195 
   79300   0.64638861    294.53458    10.434136 
   79400   0.64739286    296.08164   -176.52352 
   79500   0.64837222    297.05618   -89.816997 
   79600   0.64858834    297.41867    296.92569 
   79700   0.64808071     299.5932   -110.52149 
   79800   0.64748454    298.87852   -348.18826 
   79900   0.64754333    302.57098    23.765202 
   80000   0.64800934    298.71355    348.03234 
   80100   0.64867208    296.72261   -34.220297 
   80200   0.64930518    295.38787    -156.9573 
   80300   0.65001345    298.21936   -88.087319 
   80400   0.65121046    299.95282    363.54273 
   80500   0.65160614    294.30952    133.13172 
   80600   0.65128906    296.50351   -274.75724 
   80700   0.65109204    298.90643   -284.51865 
   80800   0.65140644    299.53042    254.08602 
   80900   0.65137354    300.37813    10.567059 
   81000   0.65091257     296.9244   -337.03146 
   81100   0.65059188    295.06409   -201.67377 
   81200   0.65053656    301.56729    263.80132 
   81300   0.65030738     302.1908    1.9625727 
   81400   0.64953619    295.89474   -201.84427 
   81500   0.64810626    292.26359    4.4774022 
   81600   0.64622791    291.22952   -140.95285 
   81700   0.64535535     293.7678   -157.34489 
   81800   0.64553975    301.94739    -26.21741 
   81900   0.64604357      300.887   -93.310281 
   82000   0.64635236    298.80208   -53.421554 
   82100   0.64602251    296.14659   -181.11551 
   82200   0.64573681    296.56168    12.085428 
   82300   0.64627097    295.65307    238.46487 
   82400   0.64639339    297.98602   -397.91636 
   82500   0.64623104    299.60716   -334.91052 
   82600   0.64560703    295.87637    46.492398 
   82700    0.6442936    293.59154   -340.73165 
   82800    0.6433932    297.96784   -424.64048 
   82900   0.64379195    300.14622     66.32821 
   83000   0.64524163    300.55513   -187.53937 
   83100   0.64712377    301.58868   -512.04933 
   83200    0.6496881    299.99542   -303.94345 
   83300   0.65141135    295.29877    611.87579 
   83400    0.6500096    298.84001   -31.137468 
   83500   0.64742806    296.43251   -120.13576 
   83600   0.64400566    298.80583   -108.99353 
   83700   0.64196213    302.67179   -139.65084 
   83800    0.6415027     296.9287    281.35965 
   83900    0.6417824    299.70273       136.81 
   84000   0.64299636    296.55316   -182.52991 
   84100   0.64431598    292.89815   -215.62638 
   84200   0.64489337    299.95938    94.683243 
   84300    0.6455829     296.2275    136.72853 
   84400   0.64567119    299.16981    28.339991 
   84500   0.64605389    291.06036    53.968874 
   84600    0.6470526    296.47755   -292.70309 
   84700   0.64915275    299.97016   -112.07901 
   84800   0.65161473    297.93497    410.32898 
   84900   0.65316917    296.40271    104.41354 
   85000   0.65316308    296.53567    211.11182 
   85100   0.65221282    295.82697    262.63976 
   85200   0.65045837    296.94239   -35.404603 
   85300   0.64947885    298.64582   -105.54808 
   85400   0.64938173    297.47766    159.31077 
   85500   0.64929163    298.15744    246.88262 
   85600   0.64977227    299.18261   -300.00802 
   85700   0.65117715    296.02845   -443.24483 
   85800   0.65172987    294.62741   -281.28668 
   85900   0.65180413    296.31959   -28.810419 
   86000   0.65104354    302.47065   -370.15935 
   86100   0.65040962    298.38573    73.615008 
   86200   0.65017007    292.95099    -269.4657 
   86300   0.65003282    293.93393   -295.26811 
   86400   0.65051942    295.78901   -126.21463 
   86500   0.65225998    295.40774   -323.91114 
   86600   0.65425606    299.41416   -153.90376 
   86700   0.65534838    300.41097   -9.8890391 
   86800   0.65613284    297.81614    107.52889 
   86900   0.65610414    298.48191   -53.709867 
   87000   0.65574125    299.02525   -96.549185 
   87100   0.65455086      303.338   -459.88683 
   87200   0.65313345    300.17462   -142.54165 
   87300   0.65187785    298.95389    495.48445 
   87400   0.65062791    299.15652    341.66836 
   87500    0.6494543    301.09987   -349.04831 
   87600    0.6488782    301.10715    112.73522 
   87700   0.64795163    301.26307    57.335779 
   87800   0.64725513    296.21198    308.76608 
   87900   0.64600156    298.23959    176.35871 
   88000   0.64465825    297.39518    16.997409 
   88100   0.64360365    298.59995   -11.967046 
   88200   0.64309415    300.79391    100.65732 
   88300   0.64221145    300.21767   -271.22675 
   88400   0.64108372     295.6261   -378.67318 
   88500   0.64051867    295.05418   -336.18796 
   88600   0.64158437     297.4977   -259.37682 
   88700   0.64476985    299.77129   -114.94995 
   88800   0.64817824    293.85712   -124.48147 
   88900   0.65031883    293.75882   -228.56465 
   89000   0.65083118    295.16817    3.9109383 
   89100   0.65045106    305.65054    408.00472 
   89200   0.65000175    301.43868    32.731356 
   89300   0.64936812    296.62951    -143.3501 
   89400   0.64866564    295.56653    60.061968 
   89500    0.6477545    298.91619    278.62162 
   89600   0.64653106    301.33573    53.647016 
   89700    0.6452451    302.38679   -242.51135 
   89800   0.64435812    299.22834   -297.62827 
   89900    0.6451611    297.37093   -151.16401 
   90000   0.64652284    298.09638   -349.21632 
   90100     0.647715    297.97791    19.853784 
   90200   0.64802015    301.14357    77.122357 
   90300   0.64684829    300.79593   -168.06886 
   90400   0.64446716    296.77954    54.166323 
   90500   0.64255296    298.70617    78.593551 
   90600   0.64282602    296.29544   -172.55925 
   90700   0.64460534    297.72347   -178.03282 
   90800   0.64661346    304.98297     230.6757 
   90900   0.64890585    300.23408    423.64211 
   91000   0.65058925    298.89833    385.40978 
   91100   0.65096131    300.79028   -37.958811 
   91200   0.65113405    294.91899   -9.4851008 
   91300   0.65069765    298.66463   -267.50259 
   91400   0.64974786     299.0089   -101.35336 
   91500   0.64951675     298.9501     106.3957 
   91600   0.64918333    295.89117    84.665198 
   91700   0.64923064    291.99028     -139.731 
   91800   0.64895063     299.1014   -498.62239 
   91900    0.6497796    295.59808    204.87471 
   92000   0.65107234    298.89262    161.11892 
   92100   0.65266205    298.87418    142.97388 
   92200   0.65382158    298.47864    299.29803 
   92300   0.65522264    297.91145    178.33303 
   92400   0.65615323    300.29997    134.79812 
   92500   0.65681921    298.29099    288.35633 
   92600   0.65637676    296.33344    128.23265 
   92700   0.65449242    299.33255    203.84628 
   92800   0.65226444    300.41041   -200.27988 
   92900   0.65109514    296.57217    38.309581 
   93000   0.65078007    297.34625     325.4298 
   93100   0.65158387    298.82224    272.49667 
   93200    0.6517005    301.32868   -388.44957 
   93300   0.65175808    299.96609   -193.28305 
   93400   0.65255348    297.28392   -217.36362 
   93500    0.6532145    298.64101    36.229591 
   93600   0.65333811    299.28195    290.15877 
   93700   0.65268622    297.07825    176.30994 
   93800    0.6523172      298.881   -217.20694 
   93900   0.65230799     295.4895    21.573024 
   94000   0.65212295      296.426   -263.80959 
   94100   0.65311546    295.19687    150.54446 
   94200   0.65440753    300.75342    346.98353 
   94300   0.65589201    299.99397    437.11062 
   94400   0.65597458    301.14943   0.90407104 
   94500   0.65544817    297.49059    83.358879 
   94600   0.65400615    294.97427    7.0538639 
   94700   0.65237391    299.46533    -183.2177 
   94800   0.65155128    301.16084    14.066096 
   94900   0.65116494     297.4156   -321.69283 
   95000   0.65024549    297.70672    113.75355 
   95100   0.64915788     300.4666    68.249563 
   95200   0.64889379    297.30879    -290.8043 
   95300   0.64955522    297.29735   -417.61611 
   95400   0.65139409    298.03788    5.6821639 
   95500   0.65312037    300.38814    285.29481 
   95600   0.65468906    297.33041    265.92836 
   95700   0.65567898    297.56731    164.49167 
   95800   0.65624688    296.08323    352.88807 
   95900   0.65646157    297.04605    383.38304 
   96000    0.6556945    299.82594    320.15137 
   96100   0.65422118    303.67231    0.2750693 
   96200   0.65267306    296.17117    313.57726 
   96300   0.65036083    295.97634    55.517581 
   96400    0.6485475    295.91835   -255.51406 
   96500    0.6489336    301.02956    -235.1533 
   96600   0.65003998    301.86126   -119.45331 
   96700   0.65125043    297.67243   -157.94275 
   96800   0.65197164    295.67587   -201.18962 
   96900   0.65305169    298.32424   -86.856872 
   97000   0.65456826    302.47855   -216.85755 
   97100   0.65557053    299.21677    259.56042 
   97200   0.65559344    302.22021    384.15558 
   97300   0.65443742    299.97208   -68.774073 
   97400   0.65255087    300.51924   -150.51481 
   97500   0.65154823    295.13796    329.92376 
   97600   0.65126614    295.00002    167.75051 
   97700   0.65228177     298.1163    14.441077 
   97800   0.65275054    298.31003    50.519385 
   97900   0.65214837    300.03907    184.10538 
   98000   0.65095866    305.46391   -19.050551 
   98100   0.64947005    298.50309   -74.527357 
   98200   0.64805083    298.44766   -151.64896 
   98300   0.64683829    296.62535    28.271711 
   98400   0.64618555     297.0183   -47.225471 
   98500   0.64645676     303.6317    -119.4816 
   98600   0.64650527      300.908   -143.53227 
   98700   0.64635139    296.91513   -198.79977 
   98800   0.64708461    299.30345    50.934801 
   98900   0.64821063    299.15434    188.64313 
   99000   0.65008015    297.59671    375.89799 
   99100   0.65087792      293.344    238.35142 
   99200   0.65180407    294.07114   -213.40184 
   99300   0.65249145    298.21473   -191.66735 
   99400   0.65280123    302.16929    156.30373 
   99500   0.65302561    297.66282    317.82552 
   99600    0.6525658    296.58604   -56.867753 
   99700   0.65304462    293.72554   -425.73008 
   99800   0.65395243    296.40613   -98.040167 
   99900   0.65415238    301.62146    131.18898 
  100000   0.65448148     295.1021   -202.31552 
  100100   0.65450547    297.62851   -373.42011 
  100200    0.6543229     293.4591    18.449259 
  100300   0.65451506    297.05715    166.11794 
  100400   0.65471231    296.19247    258.19729 
  100500   0.65407686     300.1168    112.53748 
  100600   0.65365264    295.55921    165.96175 
  100700   0.65400866    294.46849    48.060822 
  100800   0.65522786     296.6487    453.85116 
  100900   0.65662097    299.41607    353.06124 
  101000   0.65761792    300.91554   -174.00814 
  101100   0.65761352    301.17714   -103.54416 
  101200    0.6569673    297.77371    266.04158 
  101300   0.65722488    296.45234    234.71025 
  101400   0.65830832    295.93855   -313.34478 
  101500   0.65822555    299.21038   -319.38315 
  101600   0.65647096    296.13783    319.79001 
  101700   0.65401012    297.83616    92.034963 
  101800   0.65232776    296.78438   -420.34564 
  101900   0.65179697    301.40646   -121.59923 
  102000   0.65120197     302.3203    223.19223 
  102100    0.6510831    300.42296    156.18704 
  102200   0.65158236     296.3326   -171.76046 
  102300   0.65324675    298.49441   -70.926982 
  102400   0.65625863    299.26933    197.11346 
  102500   0.65930991    296.17416    466.09022 
  102600   0.65999091    294.06001    243.21926 
  102700   0.65904248    297.12568    254.75776 
  102800   0.65719573    300.74959   -38.244558 
  102900   0.65635294    301.75021    106.27702 
  103000   0.65614344    295.26251    269.28041 
  103100   0.65532738    298.06522    87.879935 
  103200   0.65503523    300.81638    72.984606 
  103300   0.65410985    301.19429    314.06088 
  103400   0.65248428    297.08024    289.06388 
  103500   0.65086897    294.51346   0.01310127 
  103600   0.65013871    291.66031   -100.19103 
  103700   0.64989673    296.56332   -194.48163 
  103800   0.64989599    297.73164   -7.4153677 
  103900   0.64972245    300.84995    246.21401 
  104000    0.6506906    298.27508    529.03514 
  104100   0.65141235    295.80549   -45.704038 
  104200    0.6518739    293.04607   -262.35614 
  104300   0.65286952     296.5199     289.9933 
  104400   0.65354245    303.65774    603.96734 
  104500    0.6532209    299.62321   -181.82851 
  104600    0.6530793    295.43909    105.74842 
  104700   0.65307323    298.61715   -100.37795 
  104800   0.65361202    292.62201    81.814456 
  104900   0.65390352    296.29747   -42.931846 
  105000   0.65432741    300.57644   -236.66131 
  105100   0.65433956    298.96087    95.131919 
  105200   0.65418513    296.82759    20.748758 
  105300   0.65431576    296.08763   -98.399067 
  105400   0.65415504    298.72656   -26.296728 
  105500   0.65427915    297.08058    149.27829 
  105600   0.65509614    292.95813    377.47447 
  105700   0.65490816    296.33028    18.465352 
  105800   0.65510377    294.22102   -9.7644188 
  105900   0.65508777    300.15243      260.279 
  106000   0.65470943    297.86316    288.13617 
  106100   0.65391901    298.19387    177.11858 
  106200    0.6533632     296.2124    157.98803 
  106300   0.65299038    298.46401    224.49075 
  106400   0.65264431    300.51993    -213.2678 
  106500   0.65322024    298.17986   -373.08124 
  106600   0.65497462    291.39729     67.14159 
  106700   0.65709184    292.68676    257.08598 
  106800   0.65806352    297.31722   -140.25819 
  106900   0.65744972      295.595   -85.430809 
  107000   0.65623156    297.03805   -9.8435085 
  107100   0.65515568    295.42353    111.06442 
  107200   0.65405867     294.8217   -34.988062 
  107300   0.65421825    298.02117   -341.03705 
  107400   0.65468009    299.67425   -82.547638 
  107500    0.6547831    301.22846    50.652792 
  107600   0.65500877    297.28736   -61.304365 
  107700   0.65497914    292.45807   -79.371565 
  107800   0.65493038    296.88728   -2.5046961 
  107900   0.65483567    306.32214    58.436308 
  108000   0.65501992    303.34047   -6.1014328 
  108100   0.65466982      298.663     89.47864 
  108200   0.65472159    298.68069    35.837404 
  108300   0.65584317    297.47208   -186.47443 
  108400   0.65725966    298.23978    224.12582 
  108500   0.65776978    297.64722    177.90863 
  108600   0.65815858      299.501    119.54814 
  108700   0.65734684    297.74289    23.755327 
  108800   0.65651372     296.1138    143.97256 
  108900   0.65611351    294.91846   -390.71692 
  109000   0.65518841    298.15148   -86.593683 
  109100   0.65394062    300.77943    203.54733 
  109200   0.65354791    299.47866    -89.47352 
  109300   0.65497539    295.70241   -195.43986 
  109400   0.65770141    296.21186    207.33992 
  109500   0.65990487    301.09422   -78.507632 
  109600   0.66117847    297.89114    405.43731 
  109700   0.66060134    296.80768    81.830024 
  109800   0.65966347    293.77461   -231.21786 
  109900   0.65932912    292.84038    78.892728 
  110000   0.65933413    298.23862    772.56135 
  110100   0.65837264    298.80027     164.5788 
  110200   0.65770118    299.11684   -437.55794 
  110300   0.65763313    297.29098    119.67943 
  110400   0.65811763    294.66916    455.05054 
  110500   0.65888971    297.60113    253.43073 
  110600   0.65959903    300.10477   -97.665765 
  110700   0.65983475     300.2366    164.05407 
  110800   0.65834272    299.00424   -176.23324 
  110900   0.65725234    295.11665    444.25732 
  111000   0.65635013    296.84797    129.16725 
  111100   0.65589035    301.44184    -410.0846 
  111200   0.65491516    300.07498   -223.26805 
  111300   0.65457278    297.80184    295.20624 
  111400   0.65576988    297.72263    403.24393 
  111500   0.65835801    291.93836    39.373812 
  111600   0.66102666    296.23763   -374.05781 
  111700   0.66330062    300.28926     408.3696 
  111800   0.66391874    301.04137    381.94941 
  111900   0.66316517    300.71009   -202.42138 
  112000   0.66230569    295.17332   -310.46314 
  112100   0.66131368     297.5538    190.45726 
  112200   0.66046269     301.2787    317.65184 
  112300   0.65905251    297.95936   -217.80184 
  112400   0.65812844    297.95906    -214.0137 
  112500   0.65772905    298.05721   -205.11266 
  112600    0.6575739    300.09664    411.33315 
  112700   0.65677844    296.96945    217.89469 
  112800   0.65593212    297.34408   -122.99696 
  112900    0.6553769    297.59641    53.167521 
  113000   0.65481382    297.14733   -49.091743 
  113100   0.65550472    294.29474    386.91218 
  113200   0.65590957    299.48833    42.525989 
  113300   0.65600996     299.2989    25.947643 
  113400   0.65542325    295.44188     365.0514 
  113500   0.65416037     295.5699    58.481432 
  113600    0.6545706    295.12801   -139.37356 
  113700   0.65653646     298.1598   -13.546521 
  113800   0.65909865     298.0511    114.05206 
  113900   0.66176331    299.83591    176.40938 
  114000   0.66324303    300.49042    149.26122 
  114100   0.66312486    297.49246   -300.41026 
  114200   0.66198502    297.68139   -318.11195 
  114300   0.66050442    301.43985    71.098967 
  114400   0.65900577    299.27514    113.47855 
  114500   0.65721797    302.44731     150.9964 
  114600   0.65524172    304.51598   -462.37909 
  114700   0.65545715    296.74718   -34.263179 
  114800   0.65733123    294.77753    383.46656 
  114900   0.65967238    300.50904    198.76895 
  115000    0.6618448    298.33459   -103.31032 
  115100   0.66242136    299.92269   -61.029576 
  115200   0.66280125    293.19504   -72.031459 
  115300   0.66234867    294.52308    306.41709 
  115400   0.66123155    298.18276    -483.5464 
  115500   0.66112387    299.12545   -628.91836 
  115600   0.66192511    299.39574    338.97103 
  115700   0.66224393    293.14405    494.20763 
  115800   0.66190039    293.11461    300.98201 
  115900   0.66129739    296.32499    176.17566 
  116000   0.65968053    297.48569    94.264879 
  116100   0.65720156     299.9849   -6.4250134 
  116200   0.65458507    296.14693   -73.264665 
  116300   0.65282815    297.38453   -223.15277 
  116400    0.6528006    297.84691    144.91068 
  116500   0.65325563    301.67045    185.22892 
  116600   0.65376727     299.8554   -321.27357 
  116700   0.65507735    295.55477   -225.96454 
  116800   0.65598024    295.38206    202.35549 
  116900   0.65556868    297.75175   -464.30884 
  117000   0.65536369    300.73153   -171.85481 
  117100   0.65503383    296.68329    392.79514 
  117200   0.65459514    292.42971   -162.77711 
  117300   0.65437142    295.45239   -438.67665 
  117400   0.65441944    298.98351    10.324029 
  117500   0.65387564     297.8728    172.14282 
  117600   0.65337868    299.63044   -389.06605 
  117700   0.65449143    297.45218    198.31973 
  117800     0.655796    297.60468    589.65587 
  117900   0.65591698    296.53369    656.59308 
  118000   0.65482288    300.30881   -188.13383 
  118100   0.65373092    298.02296   -166.76583 
  118200   0.65308455    298.80178    271.11134 
  118300   0.65226975    299.40058    136.42366 
  118400   0.65149864    296.44538   -503.43493 
  118500   0.65151544    295.10603   -125.49462 
  118600   0.65208413     300.9682   -92.522098 
  118700   0.65327736    303.58682   -412.45587 
  118800   0.65571468     298.4402   -367.75318 
  118900   0.65947389    293.81681    44.663897 
  119000   0.66180236    300.19702   -143.00961 
  119100   0.66174442    302.12671    269.91312 
  119200   0.65843424    299.89564    28.604249 
  119300   0.65468974    298.00852   -209.26345 
  119400   0.65257769    289.77172   -142.88198 
  119500   0.65310566    293.64367   -24.292032 
  119600   0.65528632    299.45367   -56.732124 
  119700   0.65738746    302.35697    146.55063 
  119800   0.65860033    299.65881   -100.29142 
  119900   0.65793941    297.12717   -499.19729 
  120000   0.65753141    295.37002   -305.38489 
  120100   0.65693655    294.40398   -11.017762 
  120200   0.65613862    298.59123   -341.46577 
  120300   0.65635627     297.0315   -315.09434 
  120400   0.65671338    296.15076   -10.328156 
  120500   0.65657273    295.99893    253.30387 
  120600   0.65501888    301.19355    202.62147 
  120700    0.6528683    298.54176    88.776754 
  120800    0.6504283    294.51004   -102.38593 
  120900   0.64842515    294.88019    4.0979858 
  121000   0.64725741    296.20232    377.85245 
  121100   0.64629087    302.42076   -329.47341 
  121200   0.64577849    300.25352   -461.32688 
  121300   0.64613854     296.3713    90.784363 
  121400   0.64717936    296.62269   -227.59672 
  121500   0.64831482    299.48334    90.281411 
  121600   0.64888368    299.00304    352.02286 
  121700   0.64858211    305.77795     -183.997 
  121800   0.64795986    304.65811   -17.362748 
  121900   0.64776098    301.32967    452.49761 
  122000   0.64802408    296.07531    44.789867 
  122100   0.64791454    295.63799   -28.119138 
  122200   0.64708378    301.23056    178.79035 
  122300   0.64685813    308.41785     172.2328 
  122400   0.64731582    298.38875   -151.74463 
  122500   0.64848015    296.19782   -322.69757 
  122600   0.64988068     302.2441   -26.544843 
  122700   0.65181047    301.68788    8.4800895 
  122800   0.65412941    299.64924    77.493526 
  122900   0.65650874    298.42488   -280.00528 
  123000   0.65899497    299.16759   -201.82915 
  123100   0.66151805    297.86932   -41.855481 
  123200   0.66350137      291.615    181.67464 
  123300   0.66444798    297.25833    10.701028 
  123400   0.66421237    304.19639    21.910397 
  123500   0.66348976    300.05613   -104.51791 
  123600   0.66120748     296.4496   -250.94037 
  123700   0.65955604    294.73188    290.68837 
  123800   0.65960399    297.26806    239.83964 
  123900   0.66025928    301.10001   -546.93241 
  124000   0.66167169    302.33889   -445.72146 
  124100   0.66243315    298.07877    176.46239 
  124200   0.66322862    296.87975    289.20675 
  124300    0.6628508    298.98294    -290.5108 
  124400   0.66170372    300.12709    -68.37325 
  124500   0.66097794    295.80151    104.50501 
  124600   0.66071814    293.84813    5.5111581 
  124700   0.66123759    296.67237   -32.870523 
  124800   0.66218159    300.02809   -90.425765 
  124900   0.66326494     301.8952   -86.982029 
  125000   0.66450498    299.77638    251.88803 
  125100   0.66517242    297.55317    284.75466 
  125200   0.66468281    298.29316   -199.13198 
  125300   0.66392326    296.73036    209.90118 
  125400   0.66265074    297.75979     457.7069 
  125500   0.66112167    295.30417   -141.11655 
  125600   0.66016185    296.88611    182.96538 
  125700   0.65868159    302.87079    92.004148 
  125800    0.6572689    303.87463 0.0078392946 
  125900   0.65698643    300.24955     255.7613 
  126000   0.65809379     300.5307    173.20207 
  126100   0.66040144     296.7634   -16.006897 
  126200   0.66150249    298.98021    -262.7662 
  126300   0.66260431     297.6445    58.877465 
  126400   0.66303912    303.08021    43.711934 
  126500   0.66307784    302.30865    171.92538 
  126600   0.66242171    298.28799   -40.626908 
  126700    0.6618782    296.04512   -133.74407 
  126800   0.66224428    295.59324    190.01609 
  126900   0.66276224    299.89735     258.6905 
  127000   0.66354815    305.65629   -225.41481 
  127100    0.6644282    296.03376    135.73562 
  127200   0.66363669    296.81377    358.37725 
  127300   0.66235552    299.24029    181.52552 
  127400   0.66068817    300.77517    75.622039 
  127500    0.6588339    302.00865   -115.11273 
  127600   0.65753808    304.01249    -78.72003 
  127700   0.65720905    295.70831    101.62778 
  127800   0.65664955     293.6895   -27.698771 
  127900   0.65630348    296.16123   -146.49385 
  128000   0.65746404    297.63248    127.74682 
  128100    0.6595511    297.60425   -66.728432 
  128200    0.6611027    300.24807    200.05262 
  128300   0.66168558      300.071    526.18788 
  128400    0.6601961    298.57448    244.49387 
  128500   0.65735698     296.6973   -204.32013 
  128600   0.65517348    293.00112     156.3041 
  128700   0.65451158    297.02847   -7.5900323 
  128800   0.65538382    298.91121    16.666321 
  128900   0.65752294    298.32331    81.037476 
  129000   0.65984607    295.87865   -179.43684 
  129100   0.66169539    296.37772   -53.252913 
  129200   0.66294761    297.45004   -110.47905 
  129300   0.66347705    296.62378   -341.87423 
  129400   0.66422005    301.01192    61.279697 
  129500   0.66486085     297.8511    37.790238 
  129600     0.665294    292.91431   -86.432197 
  129700   0.66416029    297.99483   -74.473273 
  129800   0.66237242    302.11784   -81.286258 
  129900   0.66089443    296.39354   -74.117415 
  130000   0.65950219    296.35279   -14.431731 
  130100   0.65898108    296.22245    402.40369 
  130200   0.65902472    300.81994    264.29596 
  130300   0.65989455    300.89507    -7.625938 
  130400   0.66021115    304.93952   -158.65018 
  130500   0.66132048    298.37718    389.86907 
  130600   0.66211604    297.91223    316.22224 
  130700   0.66173302    303.09069   -207.44969 
  130800   0.66140315    301.66625   -25.864104 
  130900   0.66096953    301.54436    99.577249 
  131000   0.66054256     299.7117    -329.7336 
  131100   0.66041551    296.98331   -593.27498 
  131200   0.66117973    294.46051    36.578687 
  131300   0.66152001    299.15932    58.330661 
  131400   0.66129172    300.56988   -188.23836 
  131500   0.66071217    297.18048   -468.35566 
  131600   0.66040434    294.58346   -190.54207 
  131700   0.66008484     299.8132    -53.77057 
  131800   0.66059897    299.83301   -266.89381 
  131900   0.66153347    296.86643    -191.3122 
  132000   0.66197583    299.39533    228.14679 
  132100    0.6618763    294.38716    55.761901 
  132200   0.66137603    296.51276   -118.33716 
  132300   0.66078589    297.77834    -42.59126 
  132400   0.66031708    299.54759   -448.38446 
  132500   0.66060823    297.36916   -34.611658 
  132600   0.66066847    295.94342    65.295305 
  132700   0.66107705    296.59469  -0.42431606 
  132800   0.66225956     298.1296   -72.886852 
  132900   0.66309453    294.51525   -336.77859 
  133000   0.66485394    298.10198   -80.643705 
  133100   0.66593429    301.87854    231.20065 
  133200   0.66608551    299.76323    -104.1708 
  133300   0.66558756     299.9802   -370.71952 
  133400   0.66409532    297.68611   -141.15847 
  133500   0.66228977    297.85518    144.12189 
  133600   0.66125817    293.80016   -212.97225 
  133700   0.66000156    297.56876   -42.719172 
  133800   0.65896118    300.90472    169.06703 
  133900   0.65832806    302.77981     166.0243 
  134000   0.65875589    297.45569    267.28181 
  134100     0.658521    296.45021   -3.4139519 
  134200   0.65927091      298.217   -328.36293 
  134300     0.661462    297.72379    87.041291 
  134400   0.66374341    300.25047    160.76761 
  134500   0.66558174    300.93182    140.64683 
  134600   0.66522545    295.26916   -105.04194 
  134700   0.66370426     299.3036   -104.84548 
  134800   0.66265647    294.58456    37.576675 
  134900   0.66154652    300.10545     287.0374 
  135000   0.66055432    301.99132    335.02413 
  135100    0.6592768    298.89716    249.35585 
  135200   0.65840509    298.88408   -13.587817 
  135300   0.65855703    298.58086   -92.047395 
  135400   0.65960665    298.41675   -198.63669 
  135500   0.66146808    297.84278    117.49281 
  135600   0.66334157    294.39353    197.52988 
  135700   0.66462059    297.71302    283.24969 
  135800   0.66465355    300.24298     139.1807 
  135900   0.66233263    301.17421   -200.19356 
  136000   0.65831837    301.53074   -243.26494 
  136100    0.6562795    293.61464   -331.79977 
  136200   0.65660344    294.34563   -424.78758 
  136300   0.66011364      297.817    141.08926 
  136400   0.66451619    302.51155    98.595841 
  136500    0.6671511    299.04538    75.448491 
  136600    0.6677234    294.92918    423.26191 
  136700   0.66620663    297.52724    246.85882 
  136800   0.66394365    289.90285    45.695961 
  136900   0.66220773    298.66457   -13.859925 
  137000   0.66162824    298.27023    604.95076 
  137100   0.66170361    296.68981   -15.634495 
  137200   0.66185211    296.27213    9.9497708 
  137300   0.66159658     300.1294    128.46116 
  137400   0.66092087    299.64472   -129.30933 
  137500   0.66009703     303.2501    148.96668 
  137600    0.6589569    300.72289    103.41456 
  137700    0.6581177    297.47303   -7.7368238 
  137800    0.6571697    299.81505    360.14056 
  137900   0.65685231    297.07401    203.88725 
  138000   0.65742653    299.54141   -180.08584 
  138100   0.65742956    300.86079    135.88868 
  138200   0.65748649    300.13459    222.57323 
  138300   0.65807401    297.70833    25.675404 
  138400   0.65776286    295.02493    167.52055 
  138500   0.65699284    300.14117   -50.321892 
  138600   0.65580797    304.29159   -409.15822 
  138700    0.6560856    297.54081    143.19343 
  138800   0.65665502    295.61927   -152.80144 
  138900   0.65796085    296.77837   -115.80336 
  139000   0.65965745    298.19182    142.13834 
  139100   0.66091417    298.80798   -35.953033 
  139200   0.66152046    298.28358   -23.251964 
  139300   0.66042175    300.09978    -24.18067 
  139400   0.65960605    299.71564   -241.38425 
  139500   0.66004979     293.0216   -147.15064 
  139600   0.66110508    295.70628   -211.08491 
  139700   0.66106717     300.9988    60.776247 
  139800   0.65971002    297.56433    194.27678 
  139900   0.65830667    298.14556    87.891962 
  140000   0.65770865    294.62101    399.00675 
  140100    0.6576626    294.34261    127.60357 
  140200   0.65852093    299.01016    73.165151 
  140300    0.6599555    299.86755   -136.26675 
  140400   0.66132119    297.31792    -183.9479 
  140500   0.66267391    295.78137   -166.65493 
  140600   0.66361308    297.39304    103.31815 
  140700    0.6638634    294.24343    322.23437 
  140800   0.66426139    292.10396    114.14716 
  140900   0.66428786    297.58564    -55.55369 
  141000   0.66309293    299.25393   -259.15799 
  141100   0.66143722    294.70179    -260.4748 
  141200   0.65985804    294.37081   -252.05597 
  141300   0.66004457    291.05525    133.13646 
  141400   0.66062028    295.48526   -219.53933 
  141500   0.66220317    296.47078   -106.39496 
  141600   0.66267575     302.6427   -115.32869 
  141700   0.66295672    298.47277   -382.74992 
  141800    0.6628059    293.86759   -280.20788 
  141900   0.66231718    298.34186    40.250404 
  142000   0.66174383    297.97989   -178.42715 
  142100   0.66101995    297.94545    102.18032 
  142200   0.66063764    297.80373   -691.80569 
  142300   0.66052994    293.36328   -653.20334 
  142400   0.66127916    292.45167   -31.497452 
  142500    0.6630338    298.36555    153.96249 
  142600   0.66541603     299.9062    97.642921 
  142700   0.66679634    298.49115      584.225 
  142800   0.66684445    295.90923    434.25653 
  142900   0.66525793    297.52788   -75.729006 
  143000   0.66392429    299.73939    5.1789543 
  143100   0.66267898    303.11033   -36.414788 
  143200   0.66231355    299.10887    95.988526 
  143300   0.66213066    299.83138    189.53867 
  143400   0.66241097    297.61512    240.56077 
  143500   0.66355312    293.93877   -100.41114 
  143600   0.66381306    297.24849   -212.03093 
  143700   0.66340907    299.05161    149.35726 
  143800   0.66234762     302.3795    127.61945 
  143900    0.6613063      299.851   -342.57208 
  144000   0.66157694    294.49798   -319.31889 
  144100   0.66253634    299.77028   -369.06744 
  144200   0.66393557    297.21299    9.3561511 
  144300   0.66532216    296.91021   -139.16847 
  144400   0.66531813    296.83983    333.68828 
  144500   0.66387723     295.3863    198.31587 
  144600   0.66199326    299.56385   -111.87754 
  144700   0.66140485    299.23765   -182.44373 
  144800   0.66160135    293.59457   -24.933742 
  144900   0.66223974    293.76352   -18.941744 
  145000   0.66360857    297.62669    161.26488 
  145100   0.66452898    302.69955    244.37508 
  145200   0.66406951    301.73677   -260.68979 
  145300    0.6636455    298.52097    -214.7987 
  145400   0.66337114    297.54869    87.773823 
  145500   0.66318586    297.31933   -160.32186 
  145600   0.66340199    296.07648    54.348792 
  145700   0.66310037    297.22629   -14.561427 
  145800   0.66170833    296.53527   -124.88309 
  145900   0.66021088    297.25978     70.30016 
  146000   0.65939662     294.0742   -221.47992 
  146100   0.66043798    295.81768    126.15423 
  146200   0.66161512    299.54666    224.37129 
  146300   0.66239615    297.91897    171.19534 
  146400   0.66215762    304.14794   -125.86285 
  146500   0.66094874    299.44927    95.849939 
  146600    0.6595593    296.57232   -18.444966 
  146700   0.65816553    294.57348   -342.49303 
  146800   0.65792828    297.61498    199.24732 
  146900   0.65827756    298.28171    10.600802 
  147000   0.65772849    300.24674   -568.46474 
  147100   0.65787359    297.19244   -128.42158 
  147200   0.65790857    294.93796   -56.888949 
  147300   0.65866672    298.98647   -39.557184 
  147400   0.66032529     302.8506    30.176976 
  147500   0.66124377    301.67362    190.54028 
  147600   0.66039355    298.99461    79.078273 
  147700   0.65878334     298.0005   -136.02693 
  147800   0.65845315    295.00671   -136.23146 
  147900   0.65932191    294.24654    254.22084 
  148000   0.65993556    296.37943     274.7694 
  148100   0.66062998    298.72695    94.642037 
  148200   0.66069142    298.95154   -5.7488156 
  148300   0.65967623    300.47518   -46.604034 
  148400   0.65824904     300.5257    241.81815 
  148500   0.65647544    297.38447    256.10181 
  148600   0.65570998     295.1039    147.89361 
  148700   0.65625037    299.31498   -15.215914 
  148800   0.65719369      301.215   -212.89565 
  148900   0.65788057    302.01175     270.2568 
  149000   0.65750051    298.35387    465.28399 
  149100   0.65654501    296.02439   -56.687673 
  149200   0.65621094    293.72232   -125.14173 
  149300    0.6553375     294.8081   -419.82059 
  149400   0.65502958    299.13867    203.08359 
  149500   0.65502153    298.79552    21.284298 
  149600   0.65607591    295.84182   -251.45214 
  149700   0.65691208    292.13433   -139.14596 
  149800   0.65689099    297.04245    185.46597 
  149900   0.65666726    302.71376    285.75018 
  150000   0.65597386    297.66673    -289.0907 
  150100   0.65511571    295.37678   -301.77222 
  150200   0.65422531    297.80526    164.46145 
  150300   0.65416591    300.32929    431.01434 
  150400   0.65558006    300.89335    27.078862 
  150500   0.65845413    300.02394   -131.99236 
  150600   0.66169438    295.03131   -29.831448 
  150700    0.6634872    297.23123     151.9824 
  150800   0.66391698     294.5314    419.68058 
  150900   0.66331618    297.56278    546.70188 
  151000   0.66192934    299.71859    443.74037 
  151100   0.66003191    299.09665   -236.96218 
  151200   0.65814758    296.05214    107.00271 
  151300   0.65625053     298.1221    227.97514 
  151400   0.65502536    296.12816    28.158775 
  151500   0.65363471    298.52284   -144.26441 
  151600   0.65273518    297.15727    91.785483 
  151700   0.65284276    295.02201    398.77192 
  151800   0.65363515    296.38657    246.41795 
  151900   0.65536269     300.6452   -130.79722 
  152000   0.65786597    299.51457   -328.98613 
  152100   0.66035159    298.63604   -55.386758 
  152200   0.66244807    296.31121    175.05963 
  152300   0.66342804    299.28585    42.717351 
  152400   0.66312476    298.91069   -476.84952 
  152500   0.66346817     298.2658    248.44434 
  152600   0.66357438    297.15945    402.81747 
  152700    0.6633919    298.02269   -28.962949 
  152800   0.66386502    295.07745    39.387371 
  152900   0.66361532    296.05222   -82.507536 
  153000   0.66327747    298.94738    426.91277 
  153100   0.66224112    296.98665    548.62179 
  153200   0.66098706     299.9458   -344.78368 
  153300   0.66075496    294.58415    -618.0274 
  153400   0.66138642    295.76552   -171.79371 
  153500   0.66282946    297.76844   -48.161046 
  153600   0.66350784    301.63413   -223.55267 
  153700   0.66377321    296.41712    120.28555 
  153800   0.66303751    299.33457   -323.84593 
  153900   0.66226392    292.89619   -219.53055 
  154000   0.66049298    295.06786   -84.831157 
  154100   0.65930542    293.65869   -193.76658 
  154200    0.6583387    300.42968   -2.7449348 
  154300   0.65798574    299.28872     189.5486 
  154400   0.65851664    299.44197    141.51786 
  154500   0.65978277    293.47618     -273.991 
  154600   0.66192378    294.24551    148.63268 
  154700   0.66348478    299.79768   -34.854288 
  154800    0.6646378     301.3196   -112.75894 
  154900   0.66557956    297.58953    9.8928757 
  155000   0.66594769    297.55211   -169.91201 
  155100   0.66537538    295.09529     450.0222 
  155200   0.66417672    296.67651    7.7113505 
  155300   0.66285049    301.86215   -283.95438 
  155400   0.66211531    301.55327   -322.36037 
  155500   0.66150639    295.86498    78.055244 
  155600   0.66196754    299.42667   -482.72831 
  155700   0.66363518     299.9054   -212.82035 
  155800   0.66521976    298.96603   -122.18693 
  155900   0.66728083    292.48419    314.71685 
  156000   0.66793116    292.03563    426.20564 
  156100   0.66762299    299.21941   -457.98113 
  156200   0.66780445     300.3959   -332.81127 
  156300   0.66783734    296.25052     87.94579 
  156400   0.66758364    293.69135   -138.01136 
  156500   0.66745361     290.1264   -58.704301 
  156600     0.666335     294.4716   -402.16853 
  156700   0.66588191     300.0027   -570.87675 
  156800   0.66604712    299.01212   -168.80171 
  156900   0.66674204    297.79055    211.24612 
  157000   0.66785467    297.01433    132.54972 
  157100   0.66869311    293.06496   -95.055798 
  157200   0.66907408    297.46835    274.10173 
  157300   0.66843048    300.38231    207.87508 
  157400    0.6678142    298.43961    5.4015254 
  157500   0.66674233    295.54631   -645.48047 
  157600   0.66623473    294.25897   -119.81063 
  157700   0.66695872    298.37374    529.81711 
  157800   0.66769713    301.01792    96.189063 
  157900   0.66936786    297.32384   -154.71824 
  158000   0.67148272    297.35497   -331.55254 
  158100   0.67274401    300.48315   -13.091772 
  158200   0.67327604     298.8493    398.92812 
  158300   0.67354468    294.60085    132.83463 
  158400   0.67295331    299.59646   -85.496986 
  158500   0.67117929    295.69974    59.909946 
  158600   0.66850564    299.00683    225.08779 
  158700   0.66548847    303.32464    79.417023 
  158800   0.66352627     298.4927   -207.85883 
  158900   0.66233802    299.06066   -380.94532 
  159000    0.6615312    297.87375   -109.08972 
  159100   0.66080799    301.46557     44.38354 
  159200    0.6601343    305.96773   -356.01935 
  159300   0.65950953    299.42789    18.490474 
  159400   0.65907027    299.30693   -172.63314 
  159500   0.65975301    295.66391   -36.967926 
  159600   0.66165933    295.67994    11.028805 
  159700   0.66374055    300.84418    45.469882 
  159800   0.66399219    303.48111   -100.69622 
  159900   0.66311405    301.94639   -102.32081 
  160000   0.66192668    295.19024   -205.30576 
  160100   0.66072471    299.32583    132.61159 
  160200   0.65963798     295.4849    47.625841 
  160300   0.65856053    298.62291    33.016066 
  160400   0.65774041    295.34828   -133.40456 
  160500   0.65694094    299.76423    284.70813 
  160600    0.6577748    300.01692   -182.38882 
  160700   0.66006336    296.69171   -138.81603 
  160800   0.66270689    297.35609    498.75903 
  160900   0.66472041    298.15579    563.23418 
  161000    0.6658712    297.82838    94.108983 
  161100   0.66600274    296.04217    110.38205 
  161200    0.6660258    296.77773    180.37975 
  161300   0.66572199    299.39674    453.46154 
  161400   0.66416028    300.10526    155.88102 
  161500   0.66239643    298.84654   -417.63879 
  161600   0.66108684    294.19384     15.92658 
  161700   0.65996831    299.67752      91.7602 
  161800   0.66040363    300.70697   -314.06511 
  161900   0.66144944    296.80949   -331.25073 
  162000   0.66299324    296.04485    233.07182 
  162100   0.66475693    298.13094    81.961714 
  162200   0.66701304    296.21736    69.156777 
  162300   0.66886034    296.58524    85.090805 
  162400   0.66887697    299.78083    104.79327 
  162500   0.66795224    294.76924    535.33074 
  162600   0.66633007    292.84284   -61.295863 
  162700   0.66486853    294.87366    -433.8068 
  162800   0.66356066    300.48987   -180.09576 
  162900   0.66276511    298.16156    258.38998 
  163000   0.66177817     296.6622    196.21736 
  163100   0.66172567     300.0071   -1.4716337 
  163200   0.66227187    302.14682   -136.92338 
  163300   0.66257838    303.13002    166.94616 
  163400   0.66294544    298.81772   -29.806981 
  163500   0.66370627    295.37241   -227.14371 
  163600   0.66509736     295.0395    135.87687 
  163700   0.66623463    300.73285    412.18103 
  163800   0.66634757    304.38917     156.3086 
  163900   0.66535181    300.87036    456.96886 
  164000   0.66319145    297.91668    93.709177 
  164100   0.66183204    295.35814    -449.7015 
  164200   0.66208464    296.28459   -108.47448 
  164300    0.6618669    301.36614    444.30739 
  164400   0.66171579    299.06127    45.462144 
  164500   0.66153284    298.15202   -414.22918 
  164600   0.66140034    303.94524   -320.92919 
  164700   0.66196484    301.58524     160.9705 
  164800   0.66326781    296.71998   -467.54092 
  164900   0.66585555    298.81144   -251.42095 
  165000   0.66829197    300.64738      56.6011 
  165100   0.66972159    300.46142    214.65463 
  165200   0.66889256    305.75487    195.10032 
  165300   0.66666096    295.26806    -163.4089 
  165400   0.66339546    295.98667   -460.89074 
  165500   0.66073294    295.94695    18.727394 
  165600   0.65927215     298.7635    121.00546 
  165700   0.65868384    299.77673   -215.53476 
  165800    0.6584861    298.04004    37.042983 
  165900   0.65920989    299.00217   -97.368219 
  166000   0.66087528    297.06817   0.88548519 
  166100   0.66257822    298.03108   -179.81746 
  166200   0.66421597    299.52176    116.98227 
  166300   0.66438075    302.94914   -126.59003 
  166400   0.66417385    299.03146    57.043431 
  166500   0.66372095    298.82423    217.33064 
  166600   0.66321653    296.51109   -301.65936 
  166700   0.66395681    300.59699   -481.14189 
  166800   0.66596662     299.7662    97.727377 
  166900     0.667642    298.66647    473.95076 
  167000   0.66732686    293.31056    68.376119 
  167100   0.66612977    296.02015   -258.90379 
  167200   0.66560146    296.23994    40.022038 
  167300   0.66601694    299.43159    391.90909 
  167400   0.66633395    304.11928    158.90883 
  167500   0.66683175    299.51889    154.85107 
  167600   0.66746228    298.26578   -5.1874916 
  167700   0.66765685    294.46683    200.08619 
  167800   0.66716698    301.77822    61.591643 
  167900   0.66587913    305.96268   -218.06767 
  168000   0.66425205    298.02721   -109.88898 
  168100   0.66221188    294.04299    364.67144 
  168200    0.6607579    298.38431   -149.71938 
  168300   0.66117268    298.26321   -243.36563 
  168400   0.66142208    300.75128    85.565914 
  168500   0.66187581    296.24914    51.429636 
  168600   0.66276461    293.88693   -349.96804 
  168700   0.66422254    299.02298    -120.4797 
  168800   0.66631968    300.37012   -168.23271 
  168900   0.66893105     299.6492    198.82807 
  169000   0.67059283    297.47541   -20.724959 
  169100    0.6708022    296.29495   -56.341816 
  169200   0.66950518    295.47533    -349.5483 
  169300   0.66806754    296.35568   -21.082661 
  169400   0.66654696    295.50325   -71.901629 
  169500   0.66570175    300.95804    195.86897 
  169600   0.66592581    294.11445    172.78565 
  169700   0.66681601    298.00101   -259.10234 
  169800   0.66811265    303.29216    24.574979 
  169900   0.66836505    303.54166    374.72057 
  170000   0.66792779    296.68748    378.60113 
  170100   0.66621723     298.9946   -174.66648 
  170200   0.66440347    298.26629   -125.15381 
  170300   0.66328574    301.89659    259.58314 
  170400    0.6627269    298.60546   -118.42333 
  170500   0.66179508    297.32418   -420.22322 
  170600   0.66078392      296.611   -372.48623 
  170700   0.65985646    298.30699   -294.39021 
  170800   0.65996152    296.51163   -24.632021 
  170900   0.66078848    298.86934   -95.538424 
  171000   0.66177802    300.47505   -214.88295 
  171100    0.6627993     296.6809   -229.06538 
  171200   0.66374101    296.73821    181.41897 
  171300   0.66390447    298.16658   -196.51502 
  171400   0.66480527    297.80116   -244.41007 
  171500   0.66582537     298.1861    202.33062 
  171600   0.66582448    299.94753    83.806342 
  171700   0.66527074     301.1125    179.18117 
  171800   0.66403507    295.54534   -264.06331 
  171900   0.66215137    296.93162   -289.50456 
  172000   0.66110362     300.7416   -170.02574 
  172100   0.66147525    302.69014     46.02373 
  172200   0.66292409    302.95921    107.22099 
  172300   0.66453543    299.17261   -452.12688 
  172400   0.66552489     299.4791   -139.67164 
  172500   0.66536686    300.43669    224.30365 
  172600   0.66356668    303.00859   -249.10672 
  172700   0.66217811    296.85688    92.085986 
  172800   0.66089058    294.00061   -35.580122 
  172900    0.6605289    296.13038    210.76676 
  173000   0.66090555    298.75097    272.62085 
  173100   0.66227778    299.80299    23.678958 
  173200   0.66416075     298.9062   -52.651573 
  173300   0.66535701    301.24769    344.73353 
  173400   0.66666279    298.07413    114.81503 
  173500   0.66774121    294.52541   -79.725204 
  173600   0.66777869      297.716   -22.516977 
  173700   0.66809893    299.07577    109.97716 
  173800   0.66787905    298.79147   -58.988356 
  173900   0.66619792    302.19292    22.952179 
  174000   0.66447385    297.61625   -15.538295 
  174100   0.66373379    293.05684    23.472944 
  174200   0.66370227    299.91962    370.81476 
  174300   0.66459557    299.71491   -75.645201 
  174400   0.66538572    301.64597    123.98093 
  174500   0.66571115    301.26162    308.75994 
  174600   0.66521899    293.94364    287.82718 
  174700   0.66483583    295.04291     134.6331 
  174800   0.66454759    297.61405    27.944629 
  174900   0.66514833    300.60489    36.301107 
  175000   0.66619579    299.47283    415.44084 
  175100   0.66793582    299.20308    357.86329 
  175200   0.66919715      297.057    103.47347 
  175300   0.66998119    299.00912   -251.11622 
  175400   0.66989445    293.33983    58.468876 
  175500   0.66982737    290.90926    162.90968 
  175600   0.67040346    295.61042    120.20011 
  175700   0.67213476    296.00033   -277.64997 
  175800   0.67359185    295.59715   -381.53757 
  175900   0.67362962    297.31954    24.247469 
  176000    0.6722347    297.31276    203.63281 
Loop time of 1365.04 on 1 procs for 100000 steps with 8232 atoms

Performance: 6.329 ns/day, 3.792 hours/ns, 73.258 timesteps/s
81.0% CPU use with 1 MPI tasks x no OpenMP threads

MPI task timing breakdown:
Section |  min time  |  avg time  |  max time  |%varavg| %total
---------------------------------------------------------------
Pair    | 1039       | 1039       | 1039       |   0.0 | 76.11
Bond    | 196.53     | 196.53     | 196.53     |   0.0 | 14.40
Neigh   | 57.026     | 57.026     | 57.026     |   0.0 |  4.18
Comm    | 12.756     | 12.756     | 12.756     |   0.0 |  0.93
Output  | 11.691     | 11.691     | 11.691     |   0.0 |  0.86
Modify  | 41.547     | 41.547     | 41.547     |   0.0 |  3.04
Other   |            | 6.516      |            |       |  0.48

Nlocal:    8232 ave 8232 max 8232 min
Histogram: 1 0 0 0 0 0 0 0 0 0
Nghost:    11763 ave 11763 max 11763 min
Histogram: 1 0 0 0 0 0 0 0 0 0
Neighs:    701210 ave 701210 max 701210 min
Histogram: 1 0 0 0 0 0 0 0 0 0

Total # of neighbors = 701210
Ave neighs/atom = 85.181
Ave special neighs/atom = 4
Neighbor list builds = 1639
Dangerous builds = 0
Total wall time: 0:38:38
