LAMMPS (3 Mar 2020)
OMP_NUM_THREADS environment is not set. Defaulting to 1 thread. (src/comm.cpp:94)
  using 1 OpenMP thread(s) per MPI task
Reading restart file ...
  restart file = 3 Mar 2020, LAMMPS = 3 Mar 2020
  restoring atom style molecular from restart
  orthogonal box = (12.4613 12.4613 12.4613) to (107.539 107.539 107.539)
  1 by 2 by 2 MPI processor grid
  restoring pair style lj/cut from restart
  restoring bond style harmonic from restart
  restoring angle style harmonic from restart
  restoring dihedral style opls from restart
  24000 atoms
  20000 bonds
  16000 angles
  12000 dihedrals
Finding 1-2 1-3 1-4 neighbors ...
  special bond factors lj:   0          0          0         
  special bond factors coul: 0          0          0         
  2 = max # of 1-2 neighbors
  2 = max # of 1-3 neighbors
  3 = max # of 1-4 neighbors
  5 = max # of special neighbors
  special bonds CPU = 0.00442135 secs
  read_restart CPU = 0.0970442 secs
Neighbor list info ...
  update every 1 steps, delay 10 steps, check yes
  max neighbors/atom: 2000, page size: 100000
  master list distance cutoff = 16
  ghost atom cutoff = 16
  binsize = 8, bins = 12 12 12
  1 neighbor lists, perpetual/occasional/extra = 1 0 0
  (1) pair lj/cut, perpetual
      attributes: half, newton on
      pair build: half/bin/newton
      stencil: half/bin/3d/newton
      bin: standard
Setting up Verlet run ...
  Unit style    : metal
  Current step  : 300000
  Time step     : 0.001
Per MPI rank memory allocation (min/avg/max) = 21.4 | 21.49 | 21.78 Mbytes
Step Temp Press TotEng Density 
  300000    294.67582   -244.25911    359.36548   0.66597004 
  300100    291.64226    247.03523    375.12293   0.66570435 
  300200    291.18747   -297.67813    392.71317   0.66470198 
  300300    297.44269    321.08716    407.89782     0.663073 
  300400    299.08762   -185.49362    418.54957   0.66112458 
  300500    297.95748    160.52814    423.59627   0.65938732 
  300600    300.14992   -120.81254    422.57402   0.65803177 
  300700    298.81993    43.595612     417.8555   0.65730506 
  300800    297.29969    130.36846    417.93621   0.65685306 
  300900    298.06384   -178.91583    427.33927   0.65660185 
  301000    299.23257    214.41939    433.10786   0.65683817 
  301100     297.1852   -74.257761    432.16481   0.65726872 
  301200    298.38721   -8.5830671    427.50058    0.6575384 
  301300    295.10158   -9.2920979    412.79979   0.65810484 
  301400    295.47348    68.036154    412.27972   0.65913186 
  301500    297.41269   -95.582117    418.26414   0.65996594 
  301600    297.21559    150.56388    422.81152   0.66047812 
  301700     298.6029   -156.31953    425.98452   0.65975228 
  301800    296.49156   -156.73262    414.29876   0.65841292 
  301900    297.34503    101.16687    411.33278   0.65715882 
  302000    298.39468   -152.82715    422.39084   0.65625354 
  302100    298.76578    27.511659    428.18074   0.65626308 
  302200    299.88388    66.677191    430.09008   0.65707712 
  302300    299.37247   -38.692203    430.71539   0.65764345 
  302400    297.43977    132.86744    427.41659   0.65802069 
  302500    297.18326    45.157211    418.05116   0.65786505 
  302600    298.33494   -183.22825    417.10417   0.65748239 
  302700    299.55799    55.157757    428.93082   0.65749688 
  302800    298.75715    -72.71306    431.98853   0.65783654 
  302900    298.02965   -29.525069      429.858   0.65840201 
  303000    297.93626    185.58458    425.68951   0.65884292 
  303100     296.3817    24.009211    421.95286   0.65879086 
  303200    296.45673    45.264611    419.83392   0.65915409 
  303300    297.33104   -48.653977    419.41027   0.66027762 
  303400    297.64294    182.83488    422.82241   0.66152673 
  303500    299.25023   -162.23985    430.47785   0.66165217 
  303600    300.50969       266.99    431.24887   0.66138407 
  303700    296.47523   -159.56903     418.2882   0.66069531 
  303800    297.30764    63.358213    415.68471   0.66043989 
  303900    296.80874   -63.445894    419.21498   0.66035192 
  304000    298.82375    25.501278    424.93748   0.66069183 
  304100    298.70103   -64.353984    430.01836   0.66094323 
  304200     299.5724    107.39239    436.95744   0.66076202 
  304300    299.90836    242.17504    435.73507    0.6599463 
  304400    295.61864   -226.98488    425.60507   0.65835101 
  304500    294.48177    131.88074    424.80683   0.65710183 
  304600    297.78229   -3.5379213    434.38811   0.65684861 
  304700    298.14235   -20.573103    438.13572   0.65733727 
  304800    298.64774      302.816    435.68482   0.65798205 
  304900    298.75586   -82.099373    427.90315   0.65828299 
  305000    297.05808     105.2545    421.38213   0.65867309 
  305100    298.20563    157.45867    423.38974   0.65888226 
  305200    297.66157   -111.33397    425.59147    0.6592726 
  305300    296.77523   -130.91894    426.72619   0.65961338 
  305400    298.29255    185.10723    427.80585   0.65953249 
  305500    299.86856   -170.13282    428.73783   0.65839096 
  305600    296.67046 -0.099470278    424.75987    0.6571521 
  305700    297.40568   -120.76818    418.84075   0.65637428 
  305800    294.65244   -111.77975    418.16979   0.65702499 
  305900      298.292     10.38804    431.56989   0.65780884 
  306000    298.06867     20.68801    431.52766   0.65841258 
  306100    297.38209   -30.522432    423.07935   0.65897487 
  306200    296.44934    53.013537    419.41337    0.6591799 
  306300    298.05823     271.6104    421.72728   0.65922907 
  306400     299.8795     10.93246    433.01257   0.65897268 
  306500    301.52791    111.79793    438.42461    0.6582336 
  306600    298.61199    141.65295    429.35468   0.65717023 
  306700     297.6668   -206.29242    424.85551   0.65606559 
  306800    296.55873    227.33834    427.29807   0.65547663 
  306900    299.70035    63.609557    433.86994   0.65502729 
  307000     300.7506   -245.14733    438.66852   0.65477986 
  307100    301.28004    57.465211    448.81512   0.65506258 
  307200    303.13881   -138.85982    445.31016   0.65597473 
  307300    300.77709   -91.311339    432.72291    0.6569009 
  307400    297.77279   -88.873411    427.05649   0.65758544 
  307500    298.27813     11.96079    425.22715   0.65821088 
  307600       298.95   -274.97913    422.20062   0.65885279 
  307700    298.03919    271.82466    420.39491   0.65915629 
  307800    298.57181   -119.34873    425.77503   0.65944243 
  307900    299.80324   -81.491318    429.00832   0.65994845 
  308000    298.16744    375.98031    423.55483   0.65993244 
  308100    296.33991   -84.655213    414.72236   0.65941402 
  308200    296.37137    19.335543    415.08843   0.65856146 
  308300    298.29994    139.30651     426.2421   0.65812055 
  308400    299.25939      36.6416     432.0781   0.65756826 
  308500    297.86105   -141.47423    429.29458   0.65684272 
  308600    296.27419     171.5638    425.63439   0.65598776 
  308700    298.60532   -225.97405    427.97435   0.65503702 
  308800    300.52037    24.611482    437.96358   0.65448803 
  308900    296.86958    51.828151    436.75584   0.65528333 
  309000    295.60828   -43.321587    424.94067   0.65607107 
  309100    296.37155    124.39437    419.61511   0.65647942 
  309200    296.85029    50.605939    422.83567   0.65662608 
  309300    297.20716   -138.52682    427.24084     0.656806 
  309400    298.24177    96.320114    430.69594   0.65741737 
  309500    299.14614   -76.708708    430.02421   0.65827084 
  309600    298.10336    -76.11067    417.68571   0.65925553 
  309700    296.05921    201.27542    412.60371    0.6606923 
  309800     299.3277    214.36401    418.08548   0.66145769 
  309900    299.93336     -26.9657    424.23434   0.66171021 
  310000    298.06501    171.76255    423.89751   0.66140264 
  310100    295.57188   -2.3816107    414.04391   0.66097504 
  310200    296.19875   -62.918665    411.34176   0.65952985 
  310300    298.18448    60.084037    423.60252   0.65753813 
  310400    296.81415   -133.76766    428.38652    0.6559404 
  310500    299.28983   -21.749357    431.84454   0.65485266 
  310600    300.27732    76.264751    432.77763   0.65499578 
  310700    298.37506   -86.716666    429.99769   0.65543646 
  310800     297.3992    29.172692    427.15376   0.65565829 
  310900    299.98141     39.84068    430.68384   0.65582081 
  311000    300.02524   -183.66203    429.90553    0.6569591 
  311100    296.90597    107.44907    423.55258   0.65767408 
  311200    295.23109   -89.639469    419.19406   0.65785411 
  311300    297.29473      40.7562    424.07493    0.6577711 
  311400    300.78742   -90.309225    435.61923     0.657282 
  311500    299.68708    119.25382    436.75975   0.65670472 
  311600     297.0389   -121.14473     433.7102   0.65606254 
  311700    298.65105   -124.95324    430.12855   0.65534168 
  311800    296.35365    59.492956    427.61255   0.65549591 
  311900    297.81288   -177.29363    433.42261   0.65615937 
  312000    298.13731   -18.590911    440.22365   0.65689949 
  312100    299.68186    144.42746    439.41457   0.65766855 
  312200    297.66599    -153.1353    426.11947   0.65790102 
  312300    296.95042    91.751266    422.84086   0.65827277 
  312400    295.91349   -89.841881    426.36435   0.65901866 
  312500    299.84591     96.30998    433.01791   0.65919777 
  312600     298.0731   -46.841662    431.43502   0.65915536 
  312700    295.98637    109.79935    415.81235   0.65848091 
  312800    294.32809   -181.94482      415.226   0.65838351 
  312900    297.41062    126.33121    425.77697   0.65816596 
  313000     296.0558    -66.65076    432.30374   0.65771147 
  313100    296.49303   -3.5834628    435.86176   0.65695299 
  313200    298.50612    101.86939    432.04183   0.65658926 
  313300    296.90732   -167.87882    421.16818   0.65685583 
  313400    297.19331    171.95872    421.74435   0.65753486 
  313500    297.25865   -109.28837    426.89507   0.65813357 
  313600    298.90583    154.46323    428.74902    0.6580964 
  313700     297.7285   -167.14693    428.44592   0.65784447 
  313800    298.24821   -100.39958    429.86839   0.65744858 
  313900    298.50681   -96.696316    437.65438   0.65712111 
  314000    298.96172   -140.73483    437.02681   0.65725978 
  314100    298.37692    127.13073    427.52731   0.65759645 
  314200    296.65883   -68.174133    421.86361   0.65755959 
  314300    297.77971   -62.007476    424.06356   0.65799329 
  314400    297.98342    151.28969    431.73216   0.65900397 
  314500    300.43269   -263.70913    442.78357   0.65939735 
  314600    300.30055    152.57545    433.08796   0.65919449 
  314700    296.85553   -157.72427    423.90831   0.65861031 
  314800     295.9489    135.41885    419.19431   0.65765059 
  314900    297.60134    77.336281    422.05056   0.65669741 
  315000    299.28623   -183.45906    431.37839   0.65671136 
  315100    300.70117    102.81923    436.56651   0.65757133 
  315200    297.59405   -2.9102814    428.65084   0.65855912 
  315300    297.95439   -117.58209    420.38289   0.65878087 
  315400    297.70442    138.77853    420.60299   0.65903573 
  315500    295.13389    -5.301758    423.77575   0.65889678 
  315600    297.47903    4.3318755    431.62884   0.65802728 
  315700    299.90119    71.617158    435.65857   0.65695789 
  315800    296.99757   -133.46022    429.27758   0.65608616 
  315900     297.6678   -221.15578     418.5269   0.65554398 
  316000    298.97403   -8.4012412    422.09891   0.65595134 
  316100    298.44064   -257.29869    429.30779   0.65722819 
  316200    299.26789   -4.8650615    432.64723   0.65864445 
  316300    299.52122     50.79021    428.98454   0.65943952 
  316400    299.28534    47.951366    425.32186   0.65935788 
  316500    296.78777    31.046315    420.90432   0.65906291 
  316600    297.38165    52.625886    421.76143   0.65867684 
  316700    299.27569   -24.171165    435.93309   0.65774887 
  316800    299.04256   -138.12205    436.34752   0.65717819 
  316900    298.61247    241.64782    428.96197   0.65722902 
  317000    300.08521   -153.67685    423.97202   0.65757582 
  317100    297.14934    254.24663    420.20291   0.65866031 
  317200     296.9313   -96.806514    418.80451   0.65948362 
  317300    297.16728    98.148942    419.94953   0.65988127 
  317400    298.19966   -59.128317     422.3923   0.65950115 
  317500     297.7263    69.543832    421.02912   0.65904901 
  317600     298.1521   -35.526698    416.95691   0.65829326 
  317700    297.85878   -107.91812    417.23292   0.65751398 
  317800     300.3952   -91.915309    428.03544   0.65711952 
  317900     298.4079   -131.66172    430.85158   0.65744585 
  318000    297.60674    80.474713    427.92986   0.65782965 
  318100    296.45084   -234.58649    414.49268   0.65787514 
  318200    297.49446    141.14045    411.92888   0.65789135 
  318300    297.56453   -30.365659    419.76389   0.65795859 
  318400    297.01262    -22.70122    425.83871   0.65789039 
  318500    299.43107     105.4874    431.51975    0.6575028 
  318600    299.49017    -83.42427    430.60937   0.65699895 
  318700    297.03231    20.391849    418.84058   0.65653581 
  318800    295.59696   -158.11183    413.84692   0.65658621 
  318900    296.23408    164.46444     417.3781   0.65761552 
  319000    298.83028   -99.717962     425.1406   0.65854027 
  319100    298.24376    251.72341    427.57756   0.65931749 
  319200    298.49904   -28.524537    421.19426   0.65948917 
  319300    296.67983   -110.07505    410.26326   0.65912579 
  319400    298.30683    181.66006    411.74296   0.65856274 
  319500    295.80783   -263.20814    416.39131   0.65808162 
  319600    298.70847    118.24635    422.86112    0.6576173 
  319700    298.52874   -111.93929    427.64198   0.65692214 
  319800    299.69551    5.3122675     431.1669   0.65571108 
  319900    298.70529   -164.39582    424.06973   0.65524877 
  320000    296.53511    59.531738    411.84608   0.65497094 
  320100    296.69645    41.931604    417.88793   0.65520177 
  320200    297.51864   -227.54649    425.17314   0.65562526 
  320300    299.32874    220.90545    429.76669   0.65624753 
  320400    298.07069   -208.29198    430.43884   0.65645803 
  320500    296.34528    157.14162      418.743   0.65591599 
  320600     297.5097   -119.37218    415.50149   0.65549133 
  320700    298.73888    108.32488    423.43877   0.65561043 
  320800    298.69965   -84.760771    427.79351   0.65629728 
  320900    300.84297    36.938414    430.07982   0.65744709 
  321000    298.78883    196.29247    422.85945   0.65871882 
  321100    296.58418   -154.04825    415.11853   0.65974523 
  321200    298.50892    244.36225    414.87637   0.66081362 
  321300    298.57731    7.0221079    415.21154   0.66104562 
  321400    298.92447    39.749743    419.78553   0.66066656 
  321500     299.7552   -58.081476    425.87046   0.65991785 
  321600     297.6239    140.78898    421.79745   0.65932609 
  321700    297.21693   -142.96474    410.17226   0.65923103 
  321800    298.76926   -124.71789     411.6151   0.65974545 
  321900    298.10592    192.95581    419.21342   0.66098538 
  322000    299.81975   -416.77572    422.02651   0.66196109 
  322100    300.11998    279.61236    418.58841   0.66242151 
  322200    296.58929   -126.63088    413.86772    0.6618454 
  322300     297.7927    79.540241    413.17256   0.66054792 
  322400    298.31294    -112.0822    418.76012   0.65981288 
  322500    300.97073    87.555007    432.51868   0.65951747 
  322600      298.123    148.27235    427.38171   0.65958061 
  322700    299.89889   -41.370944    420.48668   0.65966722 
  322800    297.51872    373.64163    415.08976   0.66068186 
  322900    295.93682   -204.04557    413.47198   0.66212564 
  323000    299.27569    374.45422     418.9753   0.66379672 
  323100    300.50413   -3.1722334      423.799   0.66477846 
  323200     297.5958    75.087033    418.48679   0.66424207 
  323300    298.38188   -64.911043    411.82627    0.6623454 
  323400    296.94976   -79.813728    410.01162   0.66004961 
  323500    297.02919   -238.08305    419.61622   0.65911153 
  323600     298.6174    32.716574    427.94571   0.65919854 
  323700    298.26442    61.459932    423.32166   0.65944845 
  323800    297.02696   -154.92299    414.47845   0.66002401 
  323900    296.31705    253.66903    414.10542   0.66097982 
  324000    297.64024   -193.86846    418.35488   0.66145024 
  324100    296.57164    172.61252    420.91128   0.66139478 
  324200     299.7607   -70.065609    424.66937   0.66029744 
  324300    301.22192    67.796608    434.80588   0.65922294 
  324400    301.08787    22.522111    436.41927    0.6580762 
  324500    296.57118    47.331662    425.20378    0.6575914 
  324600    297.89713    140.21583    422.61101   0.65737599 
  324700    297.63543   -92.458427    425.36942   0.65757377 
  324800    297.55447    148.82083    426.36511   0.65855776 
  324900     296.9025   -17.266661    422.69468    0.6590972 
  325000    295.43087    198.22766    413.85276   0.65976674 
  325100    297.45665   -75.534199    414.49826   0.65991712 
  325200    299.88065    99.508401    423.45451   0.65984101 
  325300    299.99161   -105.07979    429.34774   0.65965485 
  325400     298.1116   -54.921513    421.92496   0.65958884 
  325500    295.46588    145.72253    413.22241   0.65974314 
  325600     297.9319   -404.87145    417.34003   0.65967043 
  325700    298.65453    278.43612    421.29183   0.66014925 
  325800    299.89009   -187.79443    424.25717   0.66025705 
  325900    297.92438    321.84967      426.331   0.66028064 
  326000    299.47396   -242.76406    426.27423     0.659716 
  326100    296.54094    255.68514    417.78926   0.65957986 
  326200    297.29854    -241.4181    414.37906   0.65960018 
  326300    298.14925    28.200303    420.49567   0.66021482 
  326400    302.39867    111.13021     431.1028   0.66056956 
  326500    299.10751   -324.21567    426.08943   0.66035604 
  326600    299.73302    379.93503    420.91201   0.65952952 
  326700    299.26222   -319.77925    419.76643   0.65838973 
  326800     297.9591    27.255664    421.18755   0.65756041 
  326900    299.32447   -13.519392    433.60067   0.65739481 
  327000    300.59743    2.1223019    440.12158   0.65783123 
  327100    298.60634   -138.33152    431.71094   0.65833482 
  327200    300.05247   -12.449385    425.73587   0.65875618 
  327300    298.93961    99.365491    422.59933   0.65858756 
  327400    298.87877   -202.53704    421.33287   0.65827077 
  327500    296.43711    205.07186    416.25984   0.65806752 
  327600    295.35253   -46.758827    413.84177   0.65791673 
  327700    297.28717   -102.93312    423.84407    0.6581061 
  327800    297.63063   -15.818253    431.24861   0.65819185 
  327900     298.9929    60.084993    430.29744   0.65868816 
  328000    296.44224   -302.58189    423.69421   0.65887917 
  328100    295.56872    58.487962    419.15028    0.6593998 
  328200    298.38748   -50.497004    416.14899    0.6603474 
  328300    299.79129    -84.92608    420.60305   0.66154332 
  328400    300.49746    175.15409    426.21076   0.66318247 
  328500    299.82748    19.886068    422.81686   0.66398193 
  328600    297.46279   -114.27615    410.71235   0.66390604 
  328700    295.65678    136.17525    407.16276   0.66360513 
  328800     296.1229   -36.145379    411.12998   0.66319448 
  328900    297.34518   -11.062274    418.81487   0.66247754 
  329000    298.26806    260.99888     421.9314   0.66120572 
  329100    299.78201   -292.67192    421.66231   0.65993258 
  329200    298.47265    139.30706    420.11224   0.65932059 
  329300    298.05635   -7.2891367    424.90124   0.65910057 
  329400    298.62621   -90.731598    432.83776   0.65951251 
  329500    297.91137    136.99212    429.59928   0.66006677 
  329600    298.67325    67.003725     419.6806   0.66005268 
  329700    297.00169   -49.662948    415.62417   0.65989414 
  329800    298.24541    178.63962    418.72097   0.65985068 
  329900    298.20534    59.463388     423.0637    0.6597751 
  330000    300.15391   -10.572307    426.16542   0.65943603 
  330100    300.29439    69.715232    424.57016   0.65912591 
  330200    297.71399    -209.9452    421.83171   0.65935946 
  330300    296.26728    75.616701    422.89986   0.65996448 
  330400    297.73012   -11.537421    424.24176   0.66052593 
  330500    299.28255    -36.80927    424.13768   0.66091547 
  330600     295.8862    3.5299571    411.64053   0.66092774 
  330700    295.78923    118.76107    407.79679   0.66107364 
  330800    299.81795     65.93239    414.68578   0.66098858 
  330900    298.04138    88.396355    419.47897   0.66134228 
  331000    297.86972    219.36627    426.06808   0.66095895 
  331100    301.09207   -140.65156    428.25519   0.65943851 
  331200    298.61304   -102.20186    419.66069   0.65843431 
  331300    298.27016     9.208101    418.00297   0.65836021 
  331400     296.6282   -288.34593    422.11398   0.65936835 
  331500    299.17536     107.8165    429.47168   0.66052447 
  331600    300.15769   -25.259635    430.39232   0.66126117 
  331700    298.74998   -110.52696    419.38552   0.66158166 
  331800    297.09545     24.04853    412.39022   0.66170832 
  331900    298.64627    41.259715    415.47318   0.66154181 
  332000    296.92237    33.973697    420.07048   0.66148541 
  332100    300.27192      156.726    426.89246   0.66094704 
  332200    301.55858    97.737638    429.33562   0.66037756 
  332300    295.49605   -120.59473    417.76587   0.65991095 
  332400    294.24262    182.86768    413.53869   0.65926892 
  332500    296.82168     24.56601    421.58275   0.65834011 
  332600    299.28871    82.571525    427.76696   0.65762305 
  332700      299.914   -80.676047    425.50943   0.65749508 
  332800    298.08746    281.03482    421.65292   0.65793971 
  332900    296.89686   -157.78318    422.55566    0.6578369 
  333000    298.12623    23.249939     427.9777   0.65712324 
  333100    301.49076   -68.646085    442.23089   0.65681705 
  333200    298.54972   -275.70752    436.32283    0.6566291 
  333300    296.43736    182.43014    427.11226   0.65667564 
  333400    297.95698   -128.49149    423.32406   0.65693935 
  333500    295.49374   -64.464226    422.02954   0.65736885 
  333600     297.5866    283.80989    429.97632   0.65823412 
  333700      300.805   0.24529632     438.6617   0.65896706 
  333800    300.03169    19.919299     431.1267   0.65900737 
  333900    298.23173    21.493081    419.91118   0.65907325 
  334000    298.44079    28.732099    419.33595     0.659395 
  334100    298.54616   -48.662617    421.37382   0.65965679 
  334200    298.92885    221.49087    421.27004   0.66029423 
  334300    297.53442   -83.960601    416.25829   0.66102461 
  334400    296.40105    151.86648    406.87244   0.66130919 
  334500    297.86808    10.547645    408.74863   0.66122745 
  334600    298.75351   -33.909397    418.08169   0.66065502 
  334700    299.76612      46.6495    423.67948   0.65991307 
  334800    298.14302    229.82756    423.40831    0.6587757 
  334900    297.35676   -87.874166    422.96504   0.65754786 
  335000    298.92839    154.84896     427.1877   0.65647421 
  335100    298.97382    11.273751     433.9587   0.65633616 
  335200    301.53686    186.86543    440.21518   0.65665572 
  335300    299.15415   -13.548438    429.16144   0.65748865 
  335400    298.39197    153.59285     420.8261   0.65890463 
  335500    297.64797     42.20862    417.07141   0.66042571 
  335600    297.96204    59.797321    414.85467    0.6614849 
  335700    299.21689   -85.891458    412.02211   0.66224575 
  335800    296.37164    50.421392    402.95039   0.66279765 
  335900    298.15875   -143.53614    401.84468   0.66302131 
  336000     300.1277    63.650024    412.97392   0.66356477 
  336100    299.91443   -54.315791     417.0781   0.66378664 
  336200     300.6543    17.404742    414.52992   0.66377447 
  336300    297.66168    29.514903    409.28707    0.6633543 
  336400    298.73566     55.07033    409.37414   0.66307375 
  336500     300.3017   -106.62911    420.88338   0.66299191 
  336600    300.05048    235.78252    426.69183   0.66295377 
  336700    299.68905    40.402401    419.28715   0.66236245 
  336800    297.53678    49.709527    413.45998   0.66127873 
  336900    298.18123    45.020706    414.59052   0.66031186 
  337000    298.19012   -159.48403    419.56476   0.65983241 
  337100    297.32937   -28.700762     422.2231   0.65961975 
  337200      299.426   -258.62489    422.82276   0.66008789 
  337300    297.63713    182.69283    419.26852   0.66095224 
  337400    296.94042   -304.88597    414.52403    0.6618183 
  337500    295.14335    213.23638    407.84885   0.66259203 
  337600    295.89671   -95.865517    403.01351   0.66245672 
  337700    295.52881    104.76177    411.75122    0.6620882 
  337800    298.71745    96.761145    421.28789   0.66130881 
  337900    297.94992   -129.70486      419.522   0.66107137 
  338000    296.84113    48.241381    411.55289   0.66114764 
  338100    295.44938   -172.96444    407.98287   0.66157375 
  338200    298.92551    173.86653    416.95306     0.662163 
  338300     298.0249   -31.849797    427.66885   0.66284961 
  338400     299.9538    21.970489     422.3884   0.66287641 
  338500    298.17875   -4.7179559    413.54643   0.66299571 
  338600    298.17827     32.55032    412.27228   0.66292335 
  338700    298.59524    94.127115    416.39888   0.66219334 
  338800     301.2942   -188.82159    425.85806   0.66090788 
  338900    299.64119    159.44372    426.34868   0.65994465 
  339000    297.32755   -330.85941    411.73069   0.65931262 
  339100    297.45717    172.88188    413.40505   0.65939949 
  339200     299.3191   -134.13145    419.98577   0.66023459 
  339300    298.22374    46.585538    424.18917   0.66116967 
  339400    298.70257    63.285456    422.68079   0.66179658 
  339500    295.85688   -206.23793     407.5708   0.66230084 
  339600    297.38816    150.65799    409.18056   0.66280042 
  339700    300.12074   -151.98211    418.74378   0.66276423 
  339800    297.46235    174.04374     418.4322   0.66268869 
  339900    299.09767   -169.20974    411.96352   0.66296312 
  340000    297.00798    77.178613     405.9899   0.66364908 
  340100    297.71406    81.346191    413.47178   0.66433706 
  340200    299.90461    118.94483    425.22239    0.6642395 
  340300    298.89824    77.263484     416.9084   0.66386407 
  340400    296.18857    37.288733     409.8265   0.66300091 
  340500    297.71301    26.941567    411.83619   0.66217873 
  340600    297.94313    -41.81293    419.43832    0.6616849 
  340700    298.80335    186.98479    426.59468   0.66123667 
  340800    301.73894   -90.360387    432.62151    0.6605221 
  340900    301.44666   -36.448882    429.22332   0.65970709 
  341000    296.60953   -108.27397    416.76066    0.6594151 
  341100    295.74854   -124.27097    411.87569    0.6601355 
  341200    297.83312   -138.97031    414.18057   0.66127644 
  341300    298.85275    169.33201    421.74858   0.66289373 
  341400     300.4222   -109.74415    424.02151   0.66404038 
  341500    296.89926    340.55463    410.23175   0.66415689 
  341600    296.24336   -116.24235    408.33001   0.66350909 
  341700    298.29736    42.694683    413.43542   0.66308787 
  341800    300.76836    150.39474    418.82281    0.6631717 
  341900    297.99548    -15.93313    423.94639   0.66303582 
  342000    298.75373    134.78954     431.9642   0.66276476 
  342100    300.42603   -182.93508    425.06321   0.66236808 
  342200     300.2404   -28.706843     414.0498   0.66232322 
  342300     295.6732    96.079659    411.30332   0.66251147 
  342400    297.63007    -213.9259    416.92016   0.66303166 
  342500    298.81469    291.49607      422.537   0.66337759 
  342600    298.47767    58.820355    423.05226   0.66334963 
  342700    298.65469    -81.31117    415.04201   0.66337309 
  342800    296.28775    171.30189    410.83026   0.66256384 
  342900     297.8673   -50.443368    418.48833   0.66207679 
  343000    299.66226   -175.70317    426.80373   0.66221174 
  343100    299.97944    162.15918    424.82127   0.66257903 
  343200     297.9414   -116.62669    419.54462   0.66310483 
  343300    298.50968    7.1491358    416.05158   0.66366173 
  343400    299.27486    224.97681    415.69956   0.66377845 
  343500    299.07918   -155.08422    416.11501   0.66322158 
  343600     297.3808    -32.52439    414.50827   0.66281236 
  343700     299.0196    233.35456    421.64937   0.66210802 
  343800    299.32345   -68.758781    432.25191   0.66108402 
  343900    300.52225    189.06762    426.61007   0.65997201 
  344000    294.57742    298.53644    418.87929   0.65895007 
  344100    297.50889   -428.22246    423.51431   0.65819577 
  344200    299.29001    416.49441    430.28669   0.65853385 
  344300    299.77196   -132.55366    432.03672   0.65931421 
  344400     297.8697   -25.044795    427.99404   0.66044433 
  344500    298.37249    207.91237    423.08941   0.66136335 
  344600    298.31234    -108.7202    420.09235   0.66181664 
  344700     297.0801   -48.336946    420.43055   0.66181488 
  344800    297.50605    208.15507    426.81649   0.66140788 
  344900     298.1854   -98.555476    434.13397   0.66100548 
  345000    299.64162   -67.474577    432.04338   0.66008141 
  345100    298.15287   -31.431004    420.40873   0.65951766 
  345200    297.98953   -151.43826    417.99285   0.65971743 
  345300    298.51433   -145.75338     421.5925    0.6608579 
  345400    298.51241    214.14568    423.98476   0.66222391 
  345500    295.84669   -79.671085    412.59485   0.66346467 
  345600    296.48568   -23.692689    407.29402   0.66424637 
  345700    298.67894    234.96152    410.35773   0.66457916 
  345800    298.47588   -69.770315    414.13873   0.66502772 
  345900    298.95902   -35.968618    415.69393   0.66517327 
  346000     298.6962    194.15526    411.90511   0.66470741 
  346100    295.99122   -137.79125    405.85923   0.66386797 
  346200    298.17414   -212.80943     411.6986   0.66279805 
  346300    297.49409    123.08628    421.61149   0.66229493 
  346400    299.04805   -169.68778    422.62151   0.66206821 
  346500    297.33098   -93.549231     418.5681   0.66207192 
  346600     301.8436    182.76646    421.08225   0.66185582 
  346700    299.25309   -240.52017    428.19885   0.66215964 
  346800    298.14183    114.75068    430.04928   0.66237518 
  346900    296.38219    50.720747    417.92133   0.66257297 
  347000     296.5451   -104.47977    412.94622   0.66310476 
  347100    296.14482   -88.767939     413.9258   0.66367312 
  347200    298.16335    195.21828    416.80245   0.66408089 
  347300    300.22591   -181.03009    422.83916   0.66371231 
  347400    299.09496     152.7046    428.21938   0.66279656 
  347500    298.49471   -16.161393    423.31164   0.66147351 
  347600    296.58549   -76.684778    412.56137   0.66039067 
  347700    297.15784    59.396728    416.06026   0.65980336 
  347800    297.11018   -40.567475    424.31697   0.65951222 
  347900    297.92092   -10.184904    427.86266   0.65938344 
  348000    296.88128   -69.545074    424.37065   0.65929589 
  348100    298.25386    34.318883    417.97413   0.65964957 
  348200    296.56039   -290.37225    412.49536   0.66098053 
  348300    293.05322    361.10676    403.05023   0.66232141 
  348400    295.91047   -179.55054    403.72219   0.66294173 
  348500    298.56297     160.3657    415.70723   0.66292168 
  348600    298.62287    123.45639    419.12587   0.66261388 
  348700    296.00246    37.584246    415.04095   0.66227502 
  348800     294.2573    3.9354507    409.77164   0.66167535 
  348900    296.53394    265.78212    414.91595   0.66097569 
  349000    299.80215   -145.67678    427.26921   0.66012898 
  349100    297.88333    6.2356499    426.42248   0.66000624 
  349200    297.77292    171.08079    417.92875    0.6598224 
  349300    294.61136   -316.95932    414.48601   0.66020738 
  349400    297.78067    211.00565    421.76385   0.66055472 
  349500    296.45933   -79.978349    423.34975   0.66111625 
  349600     298.2139    91.667524    424.74723   0.66171909 
  349700    297.39811   -30.715049     424.8766   0.66181749 
  349800    298.30827    96.887958    427.29087   0.66118688 
  349900    299.45678   -63.019704    433.93286   0.66024038 
  350000    300.70556   -106.49989    433.34514   0.65931649 
  350100    297.54569    262.72542    423.56963   0.65893938 
  350200    297.64495   -269.86455      421.162   0.65905162 
  350300    298.33126    158.40973    423.94448   0.65990498 
  350400    299.42042    41.387275    434.63401   0.66145291 
  350500    301.82192   -76.133288    441.23344   0.66182703 
  350600    298.26886    86.179621    430.36337   0.66152051 
  350700    297.64291   -132.85299    423.32479   0.66038827 
  350800     299.0292    -110.3455    420.86446   0.65982354 
  350900    299.04801   -115.91777    422.89283   0.65996817 
  351000    299.44387    100.58332    432.82298   0.66125492 
  351100    302.06037   -259.29069    436.05579   0.66271107 
  351200    297.76546    211.51667    424.14459   0.66397648 
  351300    298.10278   -90.597407    419.69693   0.66435861 
  351400    297.20849   -13.486645    417.68645   0.66371844 
  351500    297.23141    1.3668549      417.619   0.66270953 
  351600    297.75716   -188.52969    418.53314    0.6619132 
  351700    298.45567   -14.400068    420.16597   0.66217445 
  351800    297.47199   -63.034173    419.38331   0.66376798 
  351900    298.59949    182.43918    418.66913   0.66489254 
  352000    299.60863   -130.13194    419.83538   0.66531598 
  352100    300.27437    214.19206    420.91192   0.66473465 
  352200    296.52492    75.297398    413.34374   0.66465877 
  352300    295.56411    35.936752    411.90779   0.66421574 
  352400    298.30933    129.95607    421.11396   0.66380896 
  352500    297.88875   -57.049508    422.87556   0.66380079 
  352600    298.24509    17.786995    421.70429   0.66424887 
  352700    300.16396   -9.0193565    420.61724   0.66439127 
  352800     295.8587    50.905343    416.62641   0.66475805 
  352900    296.96012   -121.73909    416.19469   0.66443603 
  353000    298.61883    216.59455    423.06832   0.66420104 
  353100    299.33449   -218.62578    429.03343   0.66354916 
  353200    300.01953      129.678    426.72406   0.66332168 
  353300    297.20271   -40.352727    416.64651   0.66369549 
  353400    296.25651   -108.48387    414.56838   0.66408338 
  353500    297.61195    36.330083    419.33699   0.66403468 
  353600    301.60971    89.911968    431.96875   0.66392571 
  353700    301.21756    -198.8803    434.94345    0.6639731 
  353800    299.70432    183.76959    428.29265   0.66418804 
  353900    299.77253   -35.964019    420.29444   0.66424644 
  354000    298.02748    -70.31769    411.90835   0.66473604 
  354100    298.38711    176.37062    409.28386   0.66516343 
  354200    297.51784    65.187227    411.77976   0.66510088 
  354300     299.7177   -75.345691    423.24318   0.66432945 
  354400    300.17175    124.74995    424.46376   0.66304639 
  354500    298.68733   -174.64539    418.03759    0.6619445 
  354600    297.83889    45.553998    415.19415   0.66121245 
  354700    296.38595   -190.76262    416.04355   0.66117915 
  354800    297.99607     147.2394    420.98504   0.66148232 
  354900    297.71447   -236.06833    423.25933   0.66214944 
  355000    298.77761    210.36802    421.67649   0.66290553 
  355100    296.30063   -136.33208    414.19158   0.66322154 
  355200    294.07895   -68.126271    402.44853    0.6629494 
  355300    295.80175    150.38336     408.4537   0.66317483 
  355400    298.43521   -203.60874    419.05804   0.66384478 
  355500    300.37708    345.40178     419.9762   0.66452881 
  355600    298.55163   -28.376834    412.98894   0.66497896 
  355700      296.574    140.85685    407.99301   0.66527293 
  355800    296.22827    154.78011    408.99516   0.66517458 
  355900    298.86084   -90.477516    424.88022   0.66442651 
  356000    299.59178    126.14821     426.6853   0.66303817 
  356100    295.87841   -113.52632    421.38706    0.6613998 
  356200    297.95245    1.2398911     419.2177   0.65996728 
  356300    296.80896   -222.23168    421.94675   0.65990007 
  356400     298.2659    -19.16551    430.82725   0.66134573 
  356500    299.74018    9.9652582     433.5042     0.663095 
  356600    298.65868    47.883846    422.34915   0.66470343 
  356700    298.58156    25.641081    417.13295   0.66510447 
  356800    297.27271    76.705072    415.94719   0.66478629 
  356900    296.48502   -0.6400958    419.01381   0.66411008 
  357000    297.98679   -249.11735    421.80969   0.66387337 
  357100    299.83706    381.12581    416.09136   0.66452457 
  357200    296.13074   -326.29882    406.70683   0.66549186 
  357300    295.23938    223.39295    405.87542   0.66652216 
  357400    299.43755    56.351068    415.81106   0.66683209 
  357500    297.85672   -58.913141    418.08643   0.66664237 
  357600    298.07075    125.51606    415.41516   0.66638649 
  357700    297.30589    70.180309    409.97461   0.66589869 
  357800    297.24744   -68.873957    410.51116   0.66489902 
  357900    298.20888    44.792883     421.5123   0.66406548 
  358000    301.42822    38.771009     428.4442   0.66313227 
  358100    299.40778   -95.017376    422.40116   0.66210446 
  358200    296.41216    3.7540158    414.49591    0.6615718 
  358300    295.10405   -76.452203    412.97807   0.66145337 
  358400    297.74921   -174.36189    417.73003   0.66185797 
  358500     298.9135    31.673565    420.45981   0.66239354 
  358600    300.83296      64.9829    421.00845   0.66265488 
  358700    295.87777      15.2245    417.76641   0.66306916 
  358800    296.25053   -60.971275    416.69318   0.66318893 
  358900    298.47969    275.82096     421.1521   0.66338739 
  359000    298.61456   -237.35735    425.25188   0.66323282 
  359100    299.38812    266.45682    423.31705   0.66292998 
  359200    296.26404    7.2942562    413.12318   0.66237012 
  359300    296.01837   -54.186757     410.3376   0.66224648 
  359400    297.50365    153.76771    417.89536   0.66276034 
  359500    297.80677    1.4658263    424.53583    0.6635215 
  359600    297.83075    82.731437    424.56077   0.66374951 
  359700    297.34967    7.7831181     420.9152   0.66349217 
  359800    296.03053    2.2198742    413.66122   0.66319752 
  359900    296.69975   -81.415272    410.70844   0.66304232 
  360000    299.74196   -19.180932    420.55665   0.66300968 
  360100    299.79198   -40.084663    427.66445   0.66309013 
  360200    299.47111   -62.021196    423.93937   0.66259744 
  360300    295.84246    107.10155    412.86447   0.66200466 
  360400     296.2884    -37.33655    411.28603   0.66199371 
  360500    297.73412    121.33396    417.22832   0.66257563 
  360600    300.62462    30.033546    424.17686    0.6630188 
  360700    298.55385    97.475497    420.55836   0.66347384 
  360800    296.89569    11.468825    414.98489   0.66377762 
  360900    297.83638    82.778191    413.43141   0.66370368 
  361000    298.16109     129.9922    413.15557   0.66341487 
  361100    297.18358    -36.70902     415.6097     0.662791 
  361200    297.44008    131.93348    414.92592   0.66278756 
  361300     295.6506    200.02828    403.00336    0.6635471 
  361400    294.51364   -85.501819    398.72478   0.66424325 
  361500    293.67896    189.77913    405.84522   0.66490343 
  361600    296.05754   0.22655223    413.13109   0.66499075 
  361700    299.67958   -73.906633    419.90438   0.66411639 
  361800    298.59332     18.07096    416.84444   0.66311788 
  361900    297.81395   -91.062087     408.4354   0.66289517 
  362000    297.27068   -52.177195    409.52526   0.66315096 
  362100    296.47594    34.751771    415.80459   0.66378815 
  362200    298.60511   -104.28742    416.53487   0.66439219 
  362300    297.34884    223.98602    413.35325   0.66486224 
  362400    295.38507    109.47923    408.89148   0.66489063 
  362500     298.8481    1.7636034    411.79608    0.6645198 
  362600     300.6545    371.83635    421.51834   0.66373418 
  362700    299.36368      39.8052    427.80252   0.66229526 
  362800    299.09866    28.558728    423.67098   0.66083716 
  362900     295.9152   -48.411711    408.79952   0.66032674 
  363000    295.38025   -19.225031    408.92595   0.66066027 
  363100     298.2331   -62.523144     417.1188   0.66205176 
  363200    302.22959    227.46311    421.27548   0.66390903 
  363300    297.91312    97.866642    415.01895   0.66569425 
  363400    297.48511   -82.468486     406.8741   0.66624782 
  363500    298.40286    242.99335    406.31337   0.66587079 
  363600    298.16639    -217.4458    406.45722   0.66550404 
  363700     298.2459     108.4154     407.7415    0.6651028 
  363800    299.08135    239.43067    417.85372   0.66444784 
  363900    300.73579     13.30135    424.05284   0.66349884 
  364000    297.19284    154.44754    416.35297   0.66300222 
  364100    296.48806    101.28288    414.04013   0.66235399 
  364200    297.12388   -237.31553    416.30465   0.66170291 
  364300    297.23291    -115.9282     415.5801   0.66187083 
  364400    299.81688     77.44181    417.35714   0.66234118 
  364500    296.75196   -148.45295    421.18739   0.66247425 
  364600     298.0404     80.72337    431.49346   0.66192331 
  364700    300.83752    152.38253    430.61816   0.66079723 
  364800    297.64272   -108.00613    419.95775   0.65956897 
  364900    296.23047   -30.440537    417.48913   0.65887187 
  365000     299.3756    2.2275209    423.44443   0.65887863 
  365100     298.0572   -145.84418    431.34626    0.6599476 
  365200    301.09454    62.274563    440.30022    0.6610815 
  365300    299.72819    124.54296     424.3653    0.6622937 
  365400    298.94871    -224.6747    415.42364    0.6632657 
  365500     297.5379    265.19719    408.23442   0.66398538 
  365600       297.79    64.014792    406.30904   0.66457352 
  365700    297.00886    43.564491    412.53504   0.66453753 
  365800     299.6354    242.04342    420.29793   0.66404077 
  365900    298.71283   -68.426652    417.61344   0.66303288 
  366000    296.60339    1.3506694    409.01243   0.66229587 
  366100    297.01911   -107.05412     405.8994   0.66187183 
  366200    298.08087    53.078881    415.15868   0.66223775 
  366300    300.50394   -53.214622     424.0088   0.66259702 
  366400    300.86903   -53.956372    419.74898   0.66265185 
  366500    297.43677    2.1997999    409.53104   0.66294735 
  366600    296.14904   -181.78304     408.1505   0.66322261 
  366700    296.96165   -15.391725    413.18238   0.66335326 
  366800    299.68907   -80.747709    423.77154   0.66360656 
  366900    298.00156    7.7971798    422.76742   0.66351295 
  367000    298.32852    39.790582    420.54402   0.66288971 
  367100    299.01624    -3.378345    418.31825   0.66202382 
  367200    296.88324    39.640423     412.2165   0.66176829 
  367300    298.51866    51.290569    409.09211   0.66202558 
  367400    296.41895   -104.05329    408.79076   0.66326286 
  367500    298.30848    38.886564    415.49332   0.66502434 
  367600    300.11065   -121.18686    416.99623   0.66644839 
  367700     296.9401   -4.5737561     406.1654   0.66762167 
  367800    296.21191    137.32269    401.20964   0.66743629 
  367900     298.4904   -278.95096    405.18919   0.66592188 
  368000    298.71351   -5.0986005    408.10292   0.66481113 
  368100    296.82475   -46.190776    411.18544   0.66419863 
  368200    300.67809    32.958259    426.06717   0.66408546 
  368300    299.39835    59.361611    425.22454   0.66327002 
  368400    296.24223    6.1294552    414.55775    0.6627612 
  368500    295.86403     33.55592    412.68671   0.66248628 
  368600    297.92628   -89.902988    417.05753   0.66226347 
  368700    298.17326    164.40719     421.3145   0.66235652 
  368800    295.78906    -280.3417    418.69956   0.66241177 
  368900    294.94133    217.86386    407.71566   0.66269575 
  369000    293.60263   -135.19489    405.52895   0.66330766 
  369100    299.20144    201.79187    415.46376   0.66355487 
  369200    301.31561    28.832732    418.73239   0.66299538 
  369300    299.73477   -101.57678    415.43166   0.66269235 
  369400    297.95237   -113.83672    410.01326   0.66289475 
  369500    297.06262    110.71318    409.13697   0.66327024 
  369600    299.80769   -110.93815    424.03409   0.66330595 
  369700    300.60035   -58.356193     425.8979   0.66297574 
  369800    297.88715    108.21391    416.29365    0.6629399 
  369900      297.221   -90.349458    410.37866   0.66274715 
  370000    296.70744     8.145615    410.06741    0.6627832 
  370100    300.12897    143.47474    420.22858   0.66299647 
  370200    299.17851   -115.18617    424.78128   0.66354781 
  370300    298.40112    192.82433    419.98791   0.66361983 
  370400    298.34241   -68.020654    416.79534   0.66345979 
  370500    298.19652    23.836951    414.76236    0.6633787 
  370600    300.24962   -175.56278    413.92085   0.66276591 
  370700    298.41089   0.82550412    408.37813   0.66298781 
  370800    295.74924    12.491624     405.0666   0.66305832 
  370900    297.48915     201.4291    416.25328   0.66339714 
  371000     301.0185   -11.850872    421.48177   0.66387965 
  371100    299.32195   -9.8371416    415.48571   0.66450415 
  371200    296.48383    95.736702    409.80434   0.66558673 
  371300    300.01347   -12.213195    409.46498   0.66592296 
  371400    297.94394    210.43603    410.80387   0.66573504 
  371500    298.55327   -278.17196    415.42409   0.66509016 
  371600    299.56764    119.31965    426.09308   0.66440766 
  371700    299.10452   -52.941931    424.29404   0.66401818 
  371800    297.90243   -75.956299    413.53998   0.66351103 
  371900    298.27188    209.24789     411.0934   0.66326452 
  372000    297.64116   -105.95198    414.25937   0.66338529 
  372100    298.96388    27.963251    421.09398   0.66302589 
  372200     300.5287    87.628837    424.23512   0.66248453 
  372300    296.30009   -211.30346    415.39058   0.66196576 
  372400    297.16431    -72.48686    410.24404   0.66116202 
  372500    298.18823    67.888886    409.53435   0.66130548 
  372600    298.88077   -155.07504    411.78958   0.66235153 
  372700    298.98201     189.9148    419.26445   0.66347042 
  372800    298.04994   -48.338029    420.02424   0.66402007 
  372900    298.90114    42.342052    409.67484   0.66383402 
  373000    297.43298   -26.626106    403.11948   0.66331987 
  373100    295.94712    143.00241    405.19468   0.66325467 
  373200    296.83073   -98.152226    412.69286   0.66316712 
  373300    298.37494   -104.98639    417.85342   0.66311876 
  373400    299.68682    84.015817    417.90929   0.66306875 
  373500    295.81357   -250.44774     411.6942   0.66304538 
  373600    296.24143    109.16237    401.39478   0.66336974 
  373700    294.06219   -256.34151    394.76791   0.66443262 
  373800    297.95359    137.47386    412.49682   0.66594794 
  373900    298.87484   -54.786147     413.7241   0.66691039 
  374000    298.06188   -17.856059    404.33714   0.66725342 
  374100    297.00733   -14.169634    397.66786    0.6671771 
  374200    297.09584   -95.165544    397.42111   0.66724134 
  374300    296.78965    36.409969    406.42807   0.66711961 
  374400    298.41524     53.18188    415.10208   0.66560627 
  374500    299.41642    19.917517    413.99006   0.66344397 
  374600      297.246   -186.96324    411.03124   0.66160935 
  374700    296.86943    133.34445    413.13764   0.66112077 
  374800    301.28159   -208.13674    425.93098   0.66138007 
  374900    299.70212    -102.0388    423.84598   0.66239842 
  375000     296.3384    131.01514    415.55569   0.66369543 
  375100    297.57599     -30.7943    415.92571   0.66423791 
  375200    297.44171    96.093997    422.14163   0.66403874 
  375300    302.50892    76.001339    435.12849   0.66387193 
  375400    300.88767   -51.601009    429.41137   0.66373154 
  375500    298.72829    12.767014    418.84948   0.66363479 
  375600    297.90959   -16.682254    414.74175   0.66343466 
  375700    299.39143   -243.79594    415.16705   0.66319973 
  375800    298.33882   -56.123607    416.07166   0.66305086 
  375900    299.19186     -169.186    417.24943   0.66340088 
  376000    299.40475    140.17003    417.81112   0.66399698 
  376100    296.35797    19.804706    417.16668   0.66386199 
  376200    296.95889    73.349221    417.11001   0.66336467 
  376300    298.18647    224.28849    416.18836   0.66269509 
  376400    297.92786   -173.31585    416.59457   0.66229582 
  376500    297.39936    92.680911    419.38804   0.66200638 
  376600    301.88423   -15.906242    427.42668   0.66190306 
  376700    299.01711   -186.01047    425.23619   0.66236507 
  376800    296.29658     45.16491    414.54704   0.66276297 
  376900    293.62681   -9.0901631    411.28186   0.66309239 
  377000    296.45087   -81.957878    417.14088   0.66282476 
  377100    295.85892   -61.841042    419.63222   0.66248698 
  377200    297.58887    86.030391    421.86174   0.66176899 
  377300    300.15165   -83.068982    426.81326   0.66089839 
  377400    299.16928   -94.435089    431.43175      0.66027 
  377500    298.21676    195.95207     426.6846   0.66048232 
  377600    297.10981   -220.76136    414.79855   0.66148634 
  377700    296.31003    167.03595    414.81427   0.66312921 
  377800    297.96315   -40.494288    418.98052   0.66467283 
  377900     300.0174   -50.653045    416.77292   0.66571351 
  378000    297.77966    148.15407    404.21594   0.66591835 
  378100     295.5537    10.196267    403.90606     0.665513 
  378200    296.67691   -3.2208794    411.06361   0.66513813 
  378300    299.95718    78.489864    417.52049   0.66522064 
  378400    299.00441    64.597138     418.0919    0.6649816 
  378500    296.26486   -75.109689    412.76799   0.66415391 
  378600    296.97658   -42.180792    407.76346   0.66362933 
  378700    297.09275   -126.72352    411.69878   0.66372461 
  378800    298.04634    65.411922    421.86653    0.6641186 
  378900     297.3447   -1.9730747    424.28433   0.66393394 
  379000    297.61528   -8.7525593    419.27756   0.66304265 
  379100    296.70037    103.41847    408.91997   0.66208691 
  379200    297.08042   -178.16057    407.17282   0.66177925 
  379300     298.9398    44.597265    424.79598   0.66240043 
  379400    298.72381   -18.637908    426.34209   0.66309448 
  379500    299.41534   -206.88058    419.49936   0.66377794 
  379600    299.35137    118.11788    412.48889   0.66424023 
  379700     297.8671   -29.432746    409.56468   0.66452324 
  379800    300.24902   -66.701354    416.95696   0.66432668 
  379900    299.80257    207.48966    424.77143   0.66416738 
  380000    299.98731     50.80154    423.98981   0.66335056 
  380100    296.61339    68.382731    407.90379   0.66271216 
  380200    296.71352    165.59498    406.61371   0.66279678 
  380300    298.40916   -23.243228    412.86357   0.66360332 
  380400    299.94756     63.72958    419.82545   0.66450772 
  380500    298.25313   -196.07397    418.18052   0.66478645 
  380600    295.98701    14.430579    408.88295   0.66460158 
  380700    295.25858   -141.54422    400.52358   0.66411638 
  380800    298.42873   -77.013662    406.41331    0.6634576 
  380900    299.40108   -45.976604    414.76094   0.66349989 
  381000    297.72157    45.585757    415.00022   0.66400716 
  381100      297.805    158.47951     415.9993   0.66444661 
  381200    300.20031   -171.42067    415.87752    0.6648005 
  381300    299.43891    118.77041    409.80853   0.66523622 
  381400    293.82783   -279.79021    400.75415   0.66563962 
  381500    297.64966     245.3275    403.17556    0.6660119 
  381600    298.23991    29.548418    411.12454   0.66638344 
  381700    298.30258    141.30578    413.02471   0.66668568 
  381800    298.42173    212.19953    410.37276   0.66645949 
  381900    298.05478   -42.823315    404.68068   0.66591126 
  382000    295.85081    208.44678    400.43271   0.66532609 
  382100    297.89023   0.99184734    408.61349   0.66483486 
  382200     297.4308     71.67936    419.72901   0.66421834 
  382300    296.50915   -92.572987    420.94923   0.66317596 
  382400    298.64739    41.490376    422.76178   0.66230969 
  382500    298.86458    21.553325    429.08447   0.66124467 
  382600    299.11943   -146.38025    436.43596    0.6602487 
  382700    297.06947    197.02466    428.68288   0.66026228 
  382800     298.1121   -401.29975    419.79946   0.66025235 
  382900    296.18599    58.692876    420.82373    0.6608886 
  383000    298.08488   -200.35751    423.04027   0.66192621 
  383100    299.59425    67.378299    420.40396   0.66331335 
  383200    296.60953   -7.8718724    408.53572   0.66469001 
  383300    295.54777    131.11324    406.68483   0.66515458 
  383400     298.9348    18.529589    413.86027   0.66489375 
  383500    300.87245    49.414522    416.95682   0.66458404 
  383600    298.75656    178.39762    406.13232   0.66459362 
  383700    296.10674   -76.702396    396.38293   0.66493765 
  383800    296.65339   -47.644889    402.16866   0.66590495 
  383900    300.25485    -16.60088    410.15026   0.66673845 
  384000    301.42065   -10.381867    412.73446   0.66708464 
  384100    297.35784   -139.34338     406.6848   0.66722769 
  384200     295.6864     24.26731    395.40078    0.6669041 
  384300    297.61182   -61.495611    398.73558    0.6665125 
  384400     298.5479   -178.02157    405.91327   0.66644244 
  384500    298.11384    103.74277    409.64087   0.66618375 
  384600    298.61636   -63.985457     411.6294   0.66628488 
  384700    299.32288     143.3449    409.57783   0.66637445 
  384800    295.46073   -154.00249    401.58187   0.66675702 
  384900    296.22259    294.61063    399.38738   0.66692064 
  385000    299.67036    -187.3406    411.44212   0.66707254 
  385100    299.36902    222.76391    416.82737   0.66717915 
  385200    298.79774    67.268388    414.17636   0.66682318 
  385300    296.38616   -126.79649    409.06408   0.66625881 
  385400    298.01152    70.041723     409.1873   0.66559536 
  385500    300.25096   -222.79754    417.64136   0.66545395 
  385600    298.06846    162.47683    421.56576   0.66538003 
  385700    298.18506   -266.57659    418.99033   0.66489796 
  385800    297.96742    182.99276     408.6067   0.66454078 
  385900    296.26517   -205.35504    406.20979   0.66501152 
  386000    297.87137    219.76819    411.15322   0.66607482 
  386100    296.35181    165.32788    415.55484   0.66653766 
  386200    299.59749    3.0582088    416.46703   0.66609343 
  386300    298.46674    107.32144     412.0351   0.66546072 
  386400    298.92507   -112.91575    409.19029   0.66514601 
  386500    298.88331    52.243587    412.04255   0.66493875 
  386600    301.17404   -191.24986    425.92904   0.66490974 
  386700    299.85201    306.64245    422.74256   0.66505352 
  386800    298.90507    -177.8559    415.06046   0.66465083 
  386900    296.67327    225.79076    412.22282   0.66456464 
  387000    298.82494    31.421582    414.19545   0.66462081 
  387100    298.42455   -66.589308    413.98046   0.66561588 
  387200    297.35108    166.93687    404.88032   0.66733898 
  387300    296.20038   -19.327556    398.66954   0.66874599 
  387400    299.94258   -23.891264    403.79562   0.67024259 
  387500    299.82118    113.64511    408.93176   0.67119231 
  387600    298.49201    242.33091    406.90251   0.67054343 
  387700    296.31769   -110.58721    397.44374   0.66911197 
  387800    297.00681    94.962992    398.27902   0.66793807 
  387900    298.16352   -50.324857    407.85756   0.66754472 
  388000    298.51857   -141.21994    415.33796    0.6675153 
  388100    298.39867   -19.457381    414.02456   0.66729523 
  388200    295.78346   -181.01967    409.51174   0.66719402 
  388300    298.21776   -15.591569    407.62377   0.66682209 
  388400    295.85637   -219.06147    401.62389   0.66673174 
  388500    296.92323    354.47318    400.27699    0.6665076 
  388600    296.61251   -230.24442    410.56341   0.66630316 
  388700    299.01745    344.76195    418.28034   0.66589264 
  388800     298.6654   -28.029903    417.10303   0.66513646 
  388900    297.66243   -120.73883    410.41897   0.66497605 
  389000    296.26908    171.41209    406.31285   0.66504352 
  389100    298.22653   -169.83407    408.43924   0.66496772 
  389200    297.30016    299.74672       409.25   0.66516614 
  389300    298.41605   -139.12878    410.54573   0.66534507 
  389400    299.54059    333.81595    412.05206   0.66547742 
  389500    296.69385   -246.27483    408.92157   0.66543927 
  389600    297.00185    36.789619    400.58336   0.66548888 
  389700    296.28215   -6.3407849    395.81734   0.66624622 
  389800    299.02784   -232.96664    407.84605   0.66691568 
  389900     300.5752   -25.435095    412.38109   0.66749318 
  390000    297.99631   -42.436668    407.70173   0.66864124 
  390100    296.44711    158.88002    401.92685   0.66936767 
  390200    299.32223   -66.326604    401.82732   0.66924771 
  390300    299.84424    139.26256    410.61754    0.6687736 
  390400    300.38123   -232.15291    414.46234   0.66808658 
  390500    296.42729    192.45175     402.5347    0.6675797 
  390600    296.59482   -20.292912    401.34758   0.66700767 
  390700    296.48676   -12.386674    405.31295   0.66681612 
  390800    298.33285    106.92015    410.75381    0.6668713 
  390900    300.11457   -40.795461    416.79204   0.66688715 
  391000    301.28562     201.4579    423.30989   0.66669795 
  391100    299.49641   -112.88841    411.64731    0.6663466 
  391200    297.55101    159.21062    407.33563   0.66566273 
  391300    298.13224   -161.30892    411.37334   0.66471574 
  391400    298.47355    11.757928    415.24379   0.66391891 
  391500    300.21451    28.643504    423.86161   0.66341787 
  391600    301.76422   -367.39878    429.75442   0.66372104 
  391700    299.10547    232.82313    417.31193   0.66510396 
  391800    298.88043   -126.36474    414.80179   0.66620618 
  391900    298.41124   -17.292699    413.58273   0.66677289 
  392000    297.48506   -22.025116    406.66252   0.66683641 
  392100    296.87023    105.92525    401.81281   0.66646132 
  392200    297.45644     66.29738    408.20319   0.66592732 
  392300    300.32726    9.1628666    419.56586   0.66500676 
  392400    300.12307    102.55823    416.57715    0.6644576 
  392500    298.15282   -233.44526    409.59629   0.66396507 
  392600    295.66714   -10.836876    407.20069    0.6644033 
  392700    297.98176   -71.861601    417.50713   0.66502127 
  392800    299.90132   -98.139016    424.29446   0.66565351 
  392900     298.6119    47.512899    419.50986    0.6661653 
  393000    297.92965   -31.238953    412.33356   0.66619433 
  393100    296.65212   -170.94111    405.33848   0.66623998 
  393200    299.08686    4.4280252    408.27427    0.6661293 
  393300    296.51144   -152.20771    415.64257   0.66632258 
  393400    297.92173   -67.624914    428.25143   0.66637996 
  393500    300.78605    82.754392    427.37458   0.66595418 
  393600    297.46603    -248.2678    416.66525    0.6651759 
  393700    296.25543   -19.242321    414.41332   0.66427448 
  393800    299.38133   -27.652866    414.04691    0.6638856 
  393900    297.68816  -0.87598031    410.33709   0.66492509 
  394000    297.55608    112.81309    409.13736   0.66621611 
  394100    296.69812    198.41349    410.91435   0.66745882 
  394200     297.3372    156.97734    418.32257   0.66747172 
  394300    298.06261   -103.62951     422.3941   0.66610278 
  394400    296.83538    289.35765    414.34413   0.66415886 
  394500    297.42948   -290.12076    407.26048   0.66250445 
  394600    295.45512   -17.763883    412.37608   0.66193275 
  394700    298.61093   -52.913231    418.72927   0.66228481 
  394800    298.64335   -349.27312    418.20525    0.6639947 
  394900     297.6991    217.89857    415.01246   0.66593959 
  395000    298.30329   -60.455223    413.64307   0.66698451 
  395100    294.99806   -145.07415    403.25965   0.66773312 
  395200    295.89202    65.495149    399.11677   0.66838265 
  395300    295.38136    34.184658    405.63728   0.66873306 
  395400    299.08572     20.06198    412.50098    0.6685563 
  395500    298.93276    105.89268    411.47189   0.66743293 
  395600    297.85965    153.64693    410.15831   0.66600409 
  395700    298.05431   -243.42048    412.19216   0.66520746 
  395800    299.32544    279.16975    420.91135   0.66476721 
  395900     301.0271    30.698526    428.04833   0.66437456 
  396000    298.82741   -299.54941    423.39543   0.66377291 
  396100    296.73502    314.05121    411.74964   0.66340872 
  396200    297.57144    -301.4599    413.12825   0.66371715 
  396300    299.83804   -69.657785    419.58865   0.66435867 
  396400     299.0293    117.54667    419.93813   0.66551519 
  396500     297.8807    23.244242    407.56938   0.66650318 
  396600    296.49902   -58.392106    402.99533   0.66725274 
  396700    298.57796    286.29542     406.8704   0.66755985 
  396800    297.53276   -25.230024    410.53266   0.66778999 
  396900    300.53267    90.173448    417.10445   0.66753908 
  397000    301.64263    325.96905    415.17603   0.66683069 
  397100    295.90344   -132.41864     403.8674   0.66561303 
  397200    296.24864   -13.049403    408.03206   0.66404883 
  397300    296.87976   -76.692097    416.65078   0.66334229 
  397400    298.50921   -91.527666    421.60562   0.66303382 
  397500     298.3174   -268.58651    421.88239   0.66337919 
  397600    299.57823    172.59261    418.25087    0.6639236 
  397700    297.15104   -47.913567    410.58528    0.6645309 
  397800    297.91886   -131.87551    406.15804   0.66477112 
  397900    296.07859    213.60171    396.90867   0.66568889 
  398000    296.39062   -150.01176    400.09467   0.66715212 
  398100    297.21849   -1.3266403    410.94347   0.66848121 
  398200    299.79651    129.28785    413.48039   0.66921986 
  398300    300.53965    -89.20167    408.89304   0.66876618 
  398400    295.00616    76.964026     399.5027    0.6676965 
  398500    294.11331    34.980464    397.13519   0.66680714 
  398600    298.50722   -282.34718    412.63227   0.66632227 
  398700    298.83277    143.10997    416.51742   0.66658007 
  398800    299.04432   -4.4435968    412.64566   0.66675398 
  398900    297.34873   -235.44837    404.28035   0.66685619 
  399000    297.34942    247.61878    401.70537   0.66685959 
  399100     297.2662   -115.31183     413.1688   0.66659505 
  399200    298.52057   -25.939839    418.57932   0.66615255 
  399300     297.9173   -2.9688035    416.29534   0.66509235 
  399400    298.21722    33.296808    415.87419    0.6639325 
  399500     299.6868   -130.86264    421.39767     0.662824 
  399600    299.27303     8.193407    430.52528   0.66181586 
  399700    296.90679   -90.203426    426.44655   0.66148453 
  399800    297.58292   -210.03629    415.81006   0.66210241 
  399900    297.36397    87.834588    415.00693   0.66382169 
  400000    295.96434    -53.45052    415.81533   0.66518206 
Loop time of 2973.85 on 4 procs for 100000 steps with 24000 atoms

Performance: 2.905 ns/day, 8.261 hours/ns, 33.626 timesteps/s
96.4% CPU use with 4 MPI tasks x 1 OpenMP threads

MPI task timing breakdown:
Section |  min time  |  avg time  |  max time  |%varavg| %total
---------------------------------------------------------------
Pair    | 2416       | 2464.4     | 2520.5     |  90.3 | 82.87
Bond    | 159.99     | 161.83     | 162.64     |   8.5 |  5.44
Neigh   | 103.07     | 103.17     | 103.3      |   1.0 |  3.47
Comm    | 124.63     | 179.59     | 227.43     | 330.1 |  6.04
Output  | 0.082907   | 0.090356   | 0.11031    |   3.8 |  0.00
Modify  | 43.538     | 44.005     | 44.568     |   6.1 |  1.48
Other   |            | 20.73      |            |       |  0.70

Nlocal:    6000 ave 6036 max 5973 min
Histogram: 2 0 0 0 0 0 1 0 0 1
Nghost:    16395.2 ave 16479 max 16317 min
Histogram: 1 0 1 0 0 0 1 0 0 1
Neighs:    1.42028e+06 ave 1.44177e+06 max 1.3835e+06 min
Histogram: 1 0 0 0 0 1 0 0 0 2

Total # of neighbors = 5681130
Ave neighs/atom = 236.714
Ave special neighs/atom = 4
Neighbor list builds = 1693
Dangerous builds = 0
System init for write_restart ...
Total wall time: 0:49:34
