LAMMPS (3 Mar 2020)
Lattice spacing in x,y,z = 12 12 12
Created orthogonal box = (0 0 0) to (120 120 120)
  1 by 1 by 1 MPI processor grid
Read molecule hexane:
  6 atoms with max type 2
  5 bonds with max type 1
  4 angles with max type 1
  3 dihedrals with max type 1
  0 impropers with max type 0
Created 24000 atoms
  create_atoms CPU = 0.0149109 secs
Neighbor list info ...
  update every 1 steps, delay 10 steps, check yes
  max neighbors/atom: 2000, page size: 100000
  master list distance cutoff = 11.4
  ghost atom cutoff = 11.4
  binsize = 5.7, bins = 22 22 22
  1 neighbor lists, perpetual/occasional/extra = 1 0 0
  (1) pair lj/cut, perpetual
      attributes: half, newton on
      pair build: half/bin/newton
      stencil: half/bin/3d/newton
      bin: standard
Setting up Verlet run ...
  Unit style    : metal
  Current step  : 0
  Time step     : 0.001
Per MPI rank memory allocation (min/avg/max) = 30.42 | 30.42 | 30.42 Mbytes
Step Temp E_pair E_mol TotEng Press 
       0          298    332.85435    155.34505    1412.6294   -1346.9344 
     100    369.72475   -401.18921    661.08626    1406.8254   -4958.0347 
Loop time of 1.97493 on 1 procs for 100 steps with 24000 atoms

Performance: 4.375 ns/day, 5.486 hours/ns, 50.635 timesteps/s
97.9% CPU use with 1 MPI tasks x no OpenMP threads

MPI task timing breakdown:
Section |  min time  |  avg time  |  max time  |%varavg| %total
---------------------------------------------------------------
Pair    | 1.2303     | 1.2303     | 1.2303     |   0.0 | 62.29
Bond    | 0.40002    | 0.40002    | 0.40002    |   0.0 | 20.25
Neigh   | 0.25594    | 0.25594    | 0.25594    |   0.0 | 12.96
Comm    | 0.02079    | 0.02079    | 0.02079    |   0.0 |  1.05
Output  | 0.025595   | 0.025595   | 0.025595   |   0.0 |  1.30
Modify  | 0.032252   | 0.032252   | 0.032252   |   0.0 |  1.63
Other   |            | 0.01008    |            |       |  0.51

Nlocal:    24000 ave 24000 max 24000 min
Histogram: 1 0 0 0 0 0 0 0 0 0
Nghost:    15248 ave 15248 max 15248 min
Histogram: 1 0 0 0 0 0 0 0 0 0
Neighs:    982444 ave 982444 max 982444 min
Histogram: 1 0 0 0 0 0 0 0 0 0

Total # of neighbors = 982444
Ave neighs/atom = 40.9352
Ave special neighs/atom = 4
Neighbor list builds = 6
Dangerous builds = 0
Setting up Verlet run ...
  Unit style    : metal
  Current step  : 100
  Time step     : 0.001
Per MPI rank memory allocation (min/avg/max) = 30.42 | 30.42 | 30.42 Mbytes
Step Density Temp Press 
     100   0.33123908    369.72475   -4958.0347 
     200   0.33123908    337.03024   -4083.3781 
     300   0.33123908    345.32631   -1971.5205 
     400   0.33123908     327.5309   -158.87109 
     500   0.33123908    313.68167    1655.6532 
     600   0.33123908    295.47581    3350.4934 
     700   0.33123908    282.83928    4191.5535 
     800   0.33123908    281.80052    4575.0642 
     900   0.33123908    296.96946    3946.5809 
    1000   0.33123908    313.35577    2225.9949 
    1100   0.33123908    308.13913    74.990532 
    1200   0.33123908    301.44518   -2232.2825 
    1300   0.33123908    291.20166   -4224.2378 
    1400   0.33123908    298.34567   -5090.2215 
    1500   0.33123908    300.77845   -5021.9171 
    1600   0.33123908    288.28824   -4160.8371 
    1700   0.33123908    288.24842   -2258.1637 
    1800   0.33123908    298.51156     147.4269 
    1900   0.33123908    307.52054     2241.654 
    2000   0.33123908    297.28032     3883.361 
    2100   0.33123908    293.69767    4630.5137 
    2200   0.33123908    294.59412    4383.2927 
    2300   0.33123908    298.17344    3317.0321 
    2400   0.33123908    305.03558    1582.3365 
    2500   0.33123908    305.78859   -338.46774 
    2600   0.33123908    302.49612   -2077.8351 
    2700   0.33123908    293.82625   -3491.3163 
    2800   0.33123908    295.34182   -4169.1404 
    2900   0.33123908    296.29563   -3993.9836 
    3000   0.33123908    296.33895   -3216.4078 
    3100   0.33123908    293.58376   -1930.6107 
    3200   0.33123908    298.45549   -290.76645 
    3300   0.33123908    305.88137    1307.9926 
    3400   0.33123908    306.21286    2625.0764 
    3500   0.33123908    297.33597    3492.2494 
    3600   0.33123908    292.78553     3665.679 
    3700   0.33123908    295.01902    3186.4108 
    3800   0.33123908    302.83189    2065.4809 
    3900   0.33123908     303.6723    580.72505 
    4000   0.33123908    299.12664   -890.15886 
    4100   0.33123908    293.53717   -2300.0515 
    4200   0.33123908    293.08315   -3445.9849 
    4300   0.33123908    298.26397   -3757.8235 
    4400   0.33123908    298.38636    -3454.956 
    4500   0.33123908    294.31585   -2545.2067 
    4600   0.33123908    291.69653   -1131.8205 
    4700   0.33123908    297.99296     358.8815 
    4800   0.33123908     306.2218    1869.4036 
    4900   0.33123908    307.05759     2943.175 
    5000   0.33123908    295.37479    3353.4831 
    5100   0.33123908    289.55783    3124.3205 
Loop time of 120.945 on 1 procs for 5000 steps with 24000 atoms

Performance: 3.572 ns/day, 6.719 hours/ns, 41.341 timesteps/s
85.2% CPU use with 1 MPI tasks x no OpenMP threads

MPI task timing breakdown:
Section |  min time  |  avg time  |  max time  |%varavg| %total
---------------------------------------------------------------
Pair    | 77.111     | 77.111     | 77.111     |   0.0 | 63.76
Bond    | 25.949     | 25.949     | 25.949     |   0.0 | 21.46
Neigh   | 10.836     | 10.836     | 10.836     |   0.0 |  8.96
Comm    | 1.4811     | 1.4811     | 1.4811     |   0.0 |  1.22
Output  | 1.5252     | 1.5252     | 1.5252     |   0.0 |  1.26
Modify  | 3.2048     | 3.2048     | 3.2048     |   0.0 |  2.65
Other   |            | 0.8371     |            |       |  0.69

Nlocal:    24000 ave 24000 max 24000 min
Histogram: 1 0 0 0 0 0 0 0 0 0
Nghost:    16651 ave 16651 max 16651 min
Histogram: 1 0 0 0 0 0 0 0 0 0
Neighs:    1.06734e+06 ave 1.06734e+06 max 1.06734e+06 min
Histogram: 1 0 0 0 0 0 0 0 0 0

Total # of neighbors = 1067335
Ave neighs/atom = 44.4723
Ave special neighs/atom = 4
Neighbor list builds = 193
Dangerous builds = 0
Setting up Verlet run ...
  Unit style    : metal
  Current step  : 5100
  Time step     : 0.001
Per MPI rank memory allocation (min/avg/max) = 30.54 | 30.54 | 30.54 Mbytes
Step Density Temp Press 
    5100   0.33123908    289.55783    3124.3205 
    5200   0.33498912    296.17181    2784.7589 
    5300   0.34088313    303.63611    2399.5121 
    5400   0.34647539    302.95939    1686.7777 
    5500   0.35132657    305.97176    832.48177 
    5600   0.35608078    301.14819    80.575143 
    5700   0.36066936    302.87626   -593.91697 
    5800   0.36516558    304.15035   -1357.3401 
    5900   0.36963459    297.50966   -2077.0643 
    6000   0.37406539    292.62787   -2605.4774 
    6100   0.37864004    288.92801    -2929.149 
    6200    0.3831756    292.61881     -3091.78 
    6300   0.38777144    297.50185   -3030.2673 
    6400   0.39227673     298.1882   -2698.1801 
    6500   0.39676621     300.0965   -2367.5747 
    6600   0.40121353    300.20762    -1868.885 
    6700   0.40565648    300.98019   -1198.7245 
    6800     0.410183    301.44719   -516.33426 
    6900   0.41469099    299.60054    182.59508 
    7000   0.41917137    299.21461    847.84679 
    7100   0.42364444    298.18851    1359.5951 
    7200   0.42807792    298.68609      1772.25 
    7300     0.432611    300.76671    2096.4095 
    7400    0.4370677    296.67501    2232.5691 
    7500   0.44149983    294.45747    2255.5946 
    7600   0.44593797     296.6881    2079.3937 
    7700   0.45036355    302.16167    1960.7315 
    7800    0.4546563    302.93891    1518.0648 
    7900   0.45916122    301.64478    987.56632 
    8000   0.46359049     297.8007    429.65075 
    8100   0.46806968    297.80003   -39.021907 
    8200   0.47250717    299.22741   -597.85619 
    8300   0.47689557    297.09402   -1041.1206 
    8400   0.48134186      296.141   -1333.5394 
    8500    0.4858677    296.67313   -1695.2465 
    8600   0.49039455    296.94979   -1837.2832 
    8700   0.49488513    298.34514   -1862.4483 
    8800   0.49940339    298.28273   -1807.3174 
    8900   0.50375049    295.86363    -1610.312 
    9000   0.50789831    295.53201   -1402.5043 
    9100   0.51226313    296.23251    -1013.762 
    9200     0.516424    301.84921   -567.78777 
    9300   0.52072909    301.85009   -117.05485 
    9400   0.52498897    301.99987    253.71183 
    9500   0.52915541    300.18644    723.18176 
    9600   0.53348148    297.77848    969.31981 
    9700   0.53779175    298.29049    1294.8887 
    9800   0.54186896     299.8831    1575.9949 
    9900   0.54581666    297.27249     1518.594 
   10000   0.54986965    299.08454     1348.956 
   10100   0.55397897    300.88964    1306.8247 
   10200   0.55791314    297.08041    1196.0213 
   10300   0.56185255    299.61451    824.74151 
   10400   0.56584731    296.67809    354.38719 
   10500   0.56980599     296.2969    130.49721 
   10600   0.57349654    298.75262   -199.56241 
   10700   0.57726657    301.38647   -540.77676 
   10800   0.58093745    299.93451   -783.34443 
   10900   0.58463724    296.96374   -796.57344 
   11000   0.58814849    299.27282   -988.75643 
   11100   0.59177372    295.70036   -1052.9571 
   11200   0.59512434    296.39946    -909.3009 
   11300   0.59835347    297.34104   -958.30384 
   11400   0.60167471    300.73144   -689.05011 
   11500   0.60508057    297.48205   -403.18247 
   11600   0.60795302    298.34803   -219.61593 
   11700   0.61054411    299.47215    64.172242 
   11800   0.61314225    298.99839    400.12425 
   11900   0.61576766    297.74329    651.43582 
   12000   0.61837728     296.5713    880.37932 
   12100   0.62095035    299.67496    1134.7901 
   12200   0.62355301     297.5548    1161.0131 
   12300   0.62616112    296.68505    1108.5176 
   12400   0.62860826    295.66476    1114.6153 
   12500   0.63106879    299.48933     1025.062 
   12600     0.633363    300.06022    962.04914 
   12700   0.63541852    298.34169    875.26733 
   12800   0.63726869    297.42669    620.67721 
   12900   0.63884741    298.75051    269.25014 
   13000   0.64029323    299.82425    305.42407 
   13100   0.64154524     298.4715    79.653372 
   13200   0.64297775    298.28394   -198.34294 
   13300   0.64465529    295.69673   -443.10666 
   13400   0.64626418    296.85431   -426.82601 
   13500   0.64763585    296.89634   -312.99046 
   13600   0.64887651    300.98165   -557.08577 
   13700   0.65023734    298.38581   -143.37794 
   13800   0.65117824    300.17874   -2.3243673 
   13900    0.6524139    296.58312     99.91995 
   14000   0.65355931    295.59245    276.75096 
   14100   0.65423978    299.79571    503.39027 
   14200   0.65454827    299.95078    510.31459 
   14300   0.65493444      298.053    751.17595 
   14400   0.65526891    297.96886    1020.8747 
   14500   0.65614266    296.85641    1038.4657 
   14600   0.65746538     296.4688    1041.4049 
   14700   0.65884252    297.10118    1121.5708 
   14800    0.6601034    299.29889    1040.0691 
   14900   0.66076024    298.18582    954.68498 
   15000   0.66131363    296.58269    896.84895 
   15100   0.66117048    295.47825    645.06122 
   15200   0.66086348    300.84494    508.45578 
   15300   0.66086609    298.46226     299.1774 
   15400   0.66075164    296.78041   -83.802619 
   15500    0.6608586     298.0355   -53.475677 
   15600    0.6612381    297.06152   -77.278809 
   15700   0.66187159    296.59127   -176.54934 
   15800   0.66200787    297.72034   -164.12625 
   15900   0.66179299    300.14403   -330.25066 
   16000   0.66146403    300.67392   -289.54221 
   16100   0.66135431    298.49435    132.27406 
   16200   0.66140654    297.53028    218.47504 
   16300   0.66168757    297.37643    283.07125 
   16400   0.66201909    297.55348     512.7961 
   16500   0.66275735    297.56775    700.47613 
   16600   0.66393186    299.02666    604.69963 
   16700    0.6655182    299.75489    805.10767 
   16800    0.6673203    294.90815    994.64037 
   16900    0.6686334    292.84778    874.49338 
   17000   0.66993657    291.52149    803.58302 
   17100   0.67086879    294.94625    597.59594 
   17200   0.67120637    299.15495    702.40951 
   17300   0.67082567    298.32214     915.5349 
   17400   0.66938289    302.02105    457.14959 
   17500   0.66838427    294.69222    547.36459 
   17600   0.66731036    297.01654    203.83935 
   17700   0.66641843     298.4471    54.106693 
   17800   0.66609745    298.91298    139.76649 
   17900   0.66601251    298.65457    -22.00109 
   18000   0.66637804    296.56704   -120.53855 
   18100   0.66729229    294.31131   -109.24147 
   18200   0.66792193    297.80354    -127.6377 
   18300   0.66872195    298.27436   -107.06787 
   18400    0.6693056    298.87148   -51.907254 
   18500    0.6694616    297.51544     244.5356 
   18600   0.66936753    292.79324    432.89999 
   18700   0.66943675    295.61294    513.25238 
   18800   0.66929349     300.4246     535.6095 
   18900   0.66919085    297.45183    562.06931 
   19000    0.6692416    295.98607    608.22795 
   19100   0.66887441    296.04079    621.34587 
   19200     0.668331    298.68569    684.98498 
   19300   0.66809273    298.33983    628.27154 
   19400   0.66761898    298.25775    648.98576 
   19500   0.66718927     296.1382    383.47847 
   19600   0.66719519      296.647    314.94279 
   19700   0.66757664    299.45491    208.13002 
   19800   0.66873623    298.78366     87.17511 
   19900   0.66989422     299.0115    -29.50614 
   20000    0.6705808    297.37658   -47.068081 
   20100   0.67059127    296.86899     107.4094 
   20200   0.67007517    296.12346    125.83956 
   20300   0.66954089    296.62677    44.462663 
   20400    0.6688594    299.01024   -9.5823305 
   20500   0.66842614    297.29647    156.20124 
   20600   0.66835405    296.29061     343.5782 
   20700   0.66853507    298.45024    429.39067 
   20800   0.66864567    301.32825    491.51686 
   20900   0.66903464    301.95827    633.96269 
   21000   0.66927416    297.48182    745.17416 
   21100   0.66884048    298.30142    652.30609 
   21200   0.66816259    297.00477    508.28082 
   21300   0.66796705      299.501    732.39846 
   21400   0.66772849    301.61836    572.61537 
   21500   0.66751725    299.13286    444.68497 
   21600   0.66758867    295.76364    460.09545 
   21700   0.66711298    299.08061    308.78415 
   21800   0.66657142    298.47039    190.06719 
   21900   0.66676747    300.69702    360.84006 
   22000   0.66758919    296.02037    221.36069 
   22100   0.66889981    297.16431    33.145337 
   22200   0.67007868    296.15137    36.967029 
   22300    0.6705843     300.4895     155.8066 
   22400   0.67084391    299.88457    309.43627 
   22500   0.67068575    295.04093    181.85124 
   22600   0.67061778    297.99097    240.65501 
   22700   0.67121794    296.62941    467.93303 
   22800   0.67174164    298.17905    479.55746 
   22900   0.67194311      299.401    463.14108 
   23000   0.67089606    302.24069    443.39563 
   23100   0.66947412    297.53291    551.14822 
   23200   0.66855268    294.83078    431.65147 
   23300   0.66830026    294.75546    496.34229 
   23400   0.66773106    299.02894    380.38534 
   23500   0.66760943    299.35336    405.34312 
   23600   0.66816628    296.51067    367.16437 
   23700   0.66894465    295.14387    373.12503 
   23800   0.66960222    299.09808    361.88568 
   23900   0.67033421    300.44284    278.35124 
   24000   0.67082266     299.0038    374.97967 
   24100   0.67048158    298.47746   -110.62897 
   24200   0.67066034    296.71478    52.746397 
   24300   0.67050604    297.68824     84.65957 
   24400   0.67011569    299.55276    282.71335 
   24500   0.66946574    300.26005    268.94075 
   24600   0.66855145    298.85165    127.95585 
   24700   0.66766539    301.51435    441.29158 
   24800   0.66661508    301.69163    424.71705 
   24900   0.66546246    299.81752    412.48613 
   25000   0.66481943    295.70348    346.17786 
   25100   0.66500511      298.435    448.53637 
   25200   0.66602753      299.164    504.32101 
   25300    0.6667757    299.47686    444.03998 
   25400   0.66693689    299.10595    462.38736 
   25500   0.66731988     295.9026    421.03662 
   25600   0.66749114    298.67903    416.60729 
   25700   0.66810049    295.03448    383.28527 
   25800   0.66903886    297.01829    220.16576 
   25900   0.67020832    295.52409    389.20921 
   26000   0.67019415    297.55039    339.26432 
   26100   0.66933579    298.52609    66.122969 
   26200   0.66855732    297.90903    56.370736 
   26300   0.66799976    298.09362    123.44123 
   26400   0.66777779     300.7651    34.138981 
   26500    0.6681688    301.56441    88.508978 
   26600   0.66872234    299.29628    148.24656 
   26700   0.66896365    297.31039    83.131566 
   26800   0.66920698    296.27978    269.07484 
   26900   0.66965725    297.33408    256.78302 
   27000   0.67034784     298.9451    352.65904 
   27100   0.67076055    296.35562    378.30407 
   27200   0.67093435    298.09651    411.86825 
   27300   0.67058621    298.28217    375.90473 
   27400   0.66944766     298.9455    299.63796 
   27500   0.66807963    298.43063    378.76752 
   27600    0.6665223     298.5842    373.83134 
   27700   0.66571812    295.75207    315.19361 
   27800   0.66595486    293.98519    16.705713 
   27900   0.66642005    296.90186    292.84613 
   28000   0.66651878    298.23066    319.29208 
   28100   0.66598515    298.51915    36.650724 
   28200   0.66534533    299.09141    58.816378 
   28300   0.66525892    295.15454     281.0833 
   28400   0.66529872    295.36907    33.737101 
   28500   0.66529985    296.72121   -13.888057 
   28600   0.66561851     298.6934    242.52205 
   28700   0.66600546    295.91099    260.51074 
   28800   0.66666299    296.89283    350.29727 
   28900   0.66717388     297.1807    387.28061 
   29000   0.66800001    295.82273    297.20654 
   29100   0.66876538    298.58172    184.19736 
   29200   0.66881627    299.18871    362.90678 
   29300   0.66761568    299.15309    290.92721 
   29400   0.66598518    295.85434    77.075184 
   29500   0.66492825    295.75393    271.93455 
   29600   0.66454694    296.86609     220.3771 
   29700   0.66452984    299.61138    63.773984 
   29800   0.66509867    297.65394    79.388205 
   29900   0.66580166     297.3707    67.325116 
   30000   0.66582366    297.18751    33.522199 
   30100   0.66524577    298.48169    154.52638 
   30200   0.66431218    299.71526    153.81592 
   30300   0.66338504    298.59684    130.20143 
   30400   0.66281243    294.59286    63.974821 
   30500   0.66305529    297.20469    190.84868 
   30600   0.66402824    297.24821    243.39317 
   30700   0.66511564    298.45129   -110.40123 
   30800   0.66627588    298.07555   -12.628799 
   30900   0.66648095    300.96899    278.27384 
   31000   0.66633284    296.08377     471.5041 
   31100   0.66642055    297.25849     307.5166 
   31200   0.66663777    297.91245    202.87267 
   31300   0.66705024    299.55608    237.21412 
   31400   0.66752812    301.82874    241.79381 
   31500   0.66771415    299.91269    474.70505 
   31600   0.66775229    297.69052    478.09716 
   31700   0.66766229    296.45478    359.49454 
   31800   0.66722155     297.5268    218.72852 
   31900   0.66641014    299.74087    265.60348 
   32000   0.66534533    301.86735    256.76958 
   32100   0.66437442    300.55279    264.80665 
   32200    0.6639475    296.44499    274.65459 
   32300   0.66396483    297.17925    129.54649 
   32400   0.66410613    298.91061    107.28385 
   32500   0.66462343    298.53176    128.59445 
   32600   0.66498195    294.73386     245.0392 
   32700   0.66523714    294.42004    295.95201 
   32800   0.66549383     299.3752    236.70261 
   32900   0.66547605     299.6852    140.05475 
   33000   0.66494953    298.33846   -29.218199 
   33100   0.66442792    297.77714    207.81662 
   33200   0.66408295    296.52643    380.88135 
   33300    0.6639033    295.80342    307.66916 
   33400   0.66397154    298.57743     219.5285 
   33500   0.66386258    300.79251    221.47771 
   33600    0.6639151    299.26739     183.3167 
   33700   0.66421037    297.33006    248.30315 
   33800   0.66452934    296.66063    93.945244 
   33900   0.66498932    299.20058    57.943698 
   34000   0.66527885    300.82085    176.48371 
   34100   0.66581424     301.2406    120.75487 
   34200   0.66553407     299.5292    -36.15329 
   34300   0.66459308    297.18708    105.00907 
   34400   0.66393047    297.63278     16.51961 
   34500   0.66370702    295.60184   -8.9865217 
   34600   0.66416041    299.70257    259.94152 
   34700   0.66466089    297.76576    111.98705 
   34800   0.66487508    298.44854    84.497241 
   34900   0.66501688     296.8965    267.12128 
   35000   0.66522233    297.11251    113.56287 
   35100   0.66515244    297.31002   -119.68348 
   35200   0.66460832    298.46947   -75.872622 
   35300     0.664325    299.08423    227.33129 
   35400   0.66353989    301.32414    155.41881 
   35500   0.66283895    296.55167    93.050782 
   35600   0.66246975    294.33693    19.295334 
   35700   0.66239052    296.26906   -8.2296419 
   35800    0.6620307    299.46086    95.840051 
   35900   0.66179218    297.32063     39.23651 
   36000   0.66155921    299.32655    137.30021 
   36100   0.66125843    301.84649    243.49858 
   36200   0.66141066    302.55237    220.58488 
   36300   0.66252791    296.97383    284.13279 
   36400   0.66337043    299.03737    190.72352 
   36500   0.66444271    297.21335     267.8889 
   36600   0.66546353    293.71148    207.83057 
   36700   0.66604743    296.44745    47.159352 
   36800   0.66624734    299.01102    166.87483 
   36900   0.66583777    299.48916    249.30754 
   37000   0.66495507    299.06602    411.91289 
   37100   0.66350134    297.54795    321.45009 
   37200   0.66137143    296.89946    251.75047 
   37300   0.65979786    299.31643    216.20276 
   37400   0.65940846     297.7038    284.45623 
   37500   0.65970988    301.79462    317.36151 
   37600    0.6605916    301.14686    429.08404 
   37700   0.66101128    298.72949    313.34723 
   37800    0.6608853    297.93573    399.94151 
   37900   0.66072247    298.91905    52.835002 
   38000    0.6613262    297.98691    -49.07073 
   38100   0.66182769    295.45472     94.42957 
   38200   0.66225735    299.93248   -11.554619 
   38300   0.66254145    300.10784    140.78889 
   38400   0.66158315    300.31834    141.45786 
   38500   0.66038006    297.09088    165.18556 
   38600   0.65964922    296.95659     54.98454 
   38700   0.65943598    298.27161    172.69905 
   38800   0.65974644    298.61413   -81.565387 
   38900   0.66027734    299.34874    184.16167 
   39000   0.66019052    297.70651    349.55792 
   39100    0.6597851    296.39914    182.57263 
   39200   0.65968611    298.34948    38.320521 
   39300   0.65966921    298.54141     43.53616 
   39400   0.65932549    296.30746    202.20073 
   39500   0.65828946     299.3967    160.50755 
   39600   0.65684876    296.46628    47.338713 
   39700   0.65559593    298.41552    206.08887 
   39800   0.65465287    298.81936    126.46045 
   39900   0.65437815    298.95864    111.68654 
   40000   0.65474687    300.08375    19.111773 
   40100   0.65533827    300.59107   -34.630678 
   40200   0.65639828    297.49786     159.0815 
   40300   0.65728372    297.76215    265.41967 
   40400   0.65770918     296.6883    107.16206 
   40500   0.65800006    299.80391   -66.619634 
   40600   0.65793639    299.32764    56.130757 
   40700   0.65757049    296.93913    359.08071 
   40800     0.657225    296.28174     114.2551 
   40900   0.65734451    299.59568   -168.21346 
   41000   0.65808477    300.53547    202.07169 
   41100   0.65805631    299.67849     175.8822 
   41200   0.65739394     297.9028    160.47615 
   41300   0.65703795    298.31064    19.336323 
   41400   0.65751853    297.04507     14.20837 
   41500   0.65833177    297.87166    485.22562 
   41600   0.65883087    296.05604    262.94035 
   41700   0.65866825    298.04236    185.74531 
   41800   0.65777055    302.52804    175.70908 
   41900   0.65675369    299.31351    148.69855 
   42000   0.65539748    296.21822    50.291827 
   42100   0.65450024    298.07693    12.968266 
   42200   0.65477596    299.40399    47.559436 
   42300   0.65565882    299.98822    112.89748 
   42400   0.65616233    299.30126    9.4778636 
   42500   0.65661737    296.37276    131.17333 
   42600   0.65670607    297.88431    181.50573 
   42700    0.6563944    297.45995    80.471284 
   42800   0.65652062    297.99719    300.63401 
   42900   0.65642911    297.34367    159.52568 
   43000   0.65595726    299.70239    156.62141 
   43100   0.65528692    300.34077     158.6109 
   43200   0.65464423    300.36409    116.09019 
   43300   0.65418878    297.92573    95.515774 
   43400   0.65455425    297.16409    163.00967 
   43500   0.65542336    298.26309   -43.295704 
   43600   0.65638528    302.23118     215.5104 
   43700   0.65690075    300.40092    266.56033 
   43800   0.65663355    297.77439   -114.53725 
   43900   0.65588657    298.96304   -163.21007 
   44000   0.65511218    296.12049    169.16571 
   44100    0.6541558    299.21898     289.3541 
   44200   0.65350658    301.06001    65.419663 
   44300   0.65333214    299.76898   -63.446886 
   44400   0.65294046    297.54519    53.796961 
   44500   0.65299405    298.07533    188.95817 
   44600   0.65374533    296.30363    56.296456 
   44700   0.65478166     297.2416    34.616695 
   44800   0.65553875    297.24175    246.44059 
   44900   0.65540884    296.82259    221.68187 
   45000   0.65467146    297.62987   -1.0132799 
   45100    0.6540689    298.53491   -36.699302 
   45200    0.6539104    296.68891    -66.56852 
   45300   0.65407342    296.88423   -93.411591 
   45400   0.65442491     298.3635    5.1366705 
   45500   0.65441257    300.61534    192.06936 
   45600   0.65403011    301.81929     -76.1017 
   45700   0.65433644    297.00847    15.362428 
   45800   0.65466692    298.08111    176.88343 
   45900   0.65540914    299.79146    276.09232 
   46000   0.65591995    301.33126    -51.07055 
   46100   0.65602156    298.61123    11.691032 
   46200   0.65581254      296.547     231.6997 
   46300   0.65528569    298.02329    181.79705 
   46400   0.65487323    298.21173    204.18759 
   46500   0.65427077     298.2792    180.12359 
   46600   0.65324274    300.52928    132.88833 
   46700   0.65232651     301.7225    324.73565 
   46800   0.65113551    299.82634    148.67621 
   46900   0.64953519    296.91718    141.83519 
   47000   0.64852518    297.45726    227.20926 
   47100   0.64856011    298.15909    5.2152281 
   47200   0.64907371    298.24022   -176.04681 
   47300   0.64977808    299.49716    109.35193 
   47400   0.65027152    299.38719    100.29051 
   47500   0.65043767    299.17579     41.52996 
   47600   0.65037277    297.85291   -53.454225 
   47700   0.65068473    296.48719     30.04187 
   47800   0.65118195    297.54906    216.70272 
   47900   0.65194188    298.50831   -64.338226 
   48000   0.65278126    299.58826   -2.9183827 
   48100   0.65300671    298.91483    255.83065 
   48200   0.65327546    296.81846    94.755395 
   48300   0.65354248    296.85359   -48.057062 
   48400   0.65354339    295.15351    200.00465 
   48500   0.65386754    297.06676    311.84172 
   48600   0.65341953    300.17437    106.59684 
   48700   0.65244924    301.22053    159.59401 
   48800   0.65176023    295.98257    247.28038 
   48900   0.65083595    296.67457    118.72911 
   49000   0.64992319    297.34077     86.92159 
   49100   0.64911536    297.07231   -83.528469 
   49200   0.64918349    296.65716   -174.90813 
   49300   0.64973682    298.04238    27.232019 
   49400   0.64948848    302.33355   -269.33035 
   49500   0.64885821    300.10926   -162.42249 
   49600   0.64788039    297.47875    -14.74169 
   49700   0.64721693    296.60262   -147.09982 
   49800   0.64720446    297.98317    14.973398 
   49900   0.64735637     298.4704    243.87184 
   50000   0.64749013    298.92297    99.329643 
   50100   0.64713739    297.77159    65.513395 
   50200   0.64709414    295.33671    12.342269 
   50300   0.64755511    297.73507    231.25686 
   50400   0.64842615    300.71744    222.40083 
   50500   0.64964142    300.09896    111.18704 
   50600   0.65055024    299.28916    172.84866 
   50700   0.65134953    297.97514    223.53139 
   50800   0.65138772     299.3502    43.269172 
   50900   0.65014802    299.54144   -4.6281934 
   51000   0.64828901    298.50562       51.067 
   51100   0.64601266    297.90885   -66.694164 
   51200   0.64444803    297.12939    -23.89968 
   51300   0.64374598    299.26011   -162.46415 
   51400   0.64387384     300.5198   -138.14903 
   51500   0.64396841    299.74911    200.92688 
   51600    0.6439457    297.16183    186.39945 
   51700   0.64444378    295.27727    87.991543 
   51800   0.64509825    297.51697    34.073194 
   51900   0.64597594    298.80398    155.90585 
   52000   0.64648428    300.57315    287.45829 
   52100   0.64682823    297.62512    391.31748 
   52200   0.64660334    298.30519    254.69127 
   52300   0.64606921    296.99866    51.823038 
   52400   0.64574974    295.32738    122.49101 
   52500   0.64510079     298.1247    6.8953221 
   52600   0.64446374    298.16699    -67.02948 
   52700   0.64364147    297.28302   -94.915091 
   52800   0.64338363    297.08188    50.251825 
   52900   0.64413951    297.66051    43.628982 
   53000   0.64571466    295.19056   -214.26645 
   53100   0.64689882    299.55109   -97.580667 
   53200   0.64756948     298.9925    78.660876 
   53300   0.64749229    297.70062    208.41138 
   53400   0.64685872    295.66596    125.71228 
   53500   0.64595723    297.93469    55.798275 
   53600   0.64516059    297.75551    155.60601 
   53700   0.64462025     296.5499    82.935134 
   53800   0.64484466    298.89933    29.479587 
   53900    0.6454183    296.99538    142.21995 
   54000   0.64590991    295.11864    181.78818 
   54100   0.64641229    296.81844    176.07208 
   54200   0.64663403    298.12575    17.734796 
   54300   0.64648991    298.94092    5.0566101 
   54400   0.64610187     298.7182   -21.724823 
   54500   0.64604638    295.81105   -219.00519 
   54600   0.64619274    297.04271   -119.57449 
   54700   0.64659652     300.9715    120.86011 
   54800   0.64677734    297.86721    118.53461 
   54900   0.64656992    297.48866   -216.10753 
   55000   0.64615924    296.75648   -81.916835 
   55100    0.6456406    298.67307   -54.252882 
Loop time of 1667.61 on 1 procs for 50000 steps with 24000 atoms

Performance: 2.591 ns/day, 9.265 hours/ns, 29.983 timesteps/s
91.9% CPU use with 1 MPI tasks x no OpenMP threads

MPI task timing breakdown:
Section |  min time  |  avg time  |  max time  |%varavg| %total
---------------------------------------------------------------
Pair    | 1244       | 1244       | 1244       |   0.0 | 74.60
Bond    | 256.32     | 256.32     | 256.32     |   0.0 | 15.37
Neigh   | 79.559     | 79.559     | 79.559     |   0.0 |  4.77
Comm    | 12.919     | 12.919     | 12.919     |   0.0 |  0.77
Output  | 14.186     | 14.186     | 14.186     |   0.0 |  0.85
Modify  | 52.781     | 52.781     | 52.781     |   0.0 |  3.17
Other   |            | 7.858      |            |       |  0.47

Nlocal:    24000 ave 24000 max 24000 min
Histogram: 1 0 0 0 0 0 0 0 0 0
Nghost:    21508 ave 21508 max 21508 min
Histogram: 1 0 0 0 0 0 0 0 0 0
Neighs:    1.96304e+06 ave 1.96304e+06 max 1.96304e+06 min
Histogram: 1 0 0 0 0 0 0 0 0 0

Total # of neighbors = 1963042
Ave neighs/atom = 81.7934
Ave special neighs/atom = 4
Neighbor list builds = 995
Dangerous builds = 0
Setting up Verlet run ...
  Unit style    : metal
  Current step  : 55100
  Time step     : 0.001
Per MPI rank memory allocation (min/avg/max) = 34.56 | 34.56 | 34.56 Mbytes
Step Density Temp Press 
   55100    0.6456406    298.67307   -54.252882 
   55200   0.64572661    298.35505   -81.277595 
   55300    0.6459072    298.48007    55.234708 
   55400   0.64606144    296.79219    25.479094 
   55500    0.6458294    297.39021    -6.685573 
   55600   0.64533995    296.92663    16.852586 
   55700   0.64536951    297.76488    73.829368 
   55800   0.64536942    298.91541    183.46977 
   55900   0.64505384     299.6362    232.06358 
   56000   0.64446487    296.37827    146.34782 
   56100   0.64411782    297.89625    27.473594 
   56200   0.64499494    298.03099    93.540216 
   56300   0.64625965    299.02411    172.89685 
   56400    0.6467753     300.5691     93.26952 
   56500   0.64664002    299.83528   -28.823428 
   56600   0.64560791    298.73473   -97.248124 
   56700   0.64445125    296.63975    143.38297 
   56800   0.64386852    297.19131   -97.965132 
   56900   0.64383691    300.42826   -260.88956 
   57000   0.64438758    298.91786   -58.045148 
   57100   0.64487955    298.05907    69.808715 
   57200   0.64549538    296.81956   -24.330723 
   57300   0.64605828    298.24828   -64.076518 
   57400    0.6463734    297.38237     17.45618 
   57500   0.64615979    298.15434    106.95727 
   57600   0.64559058    297.40962    12.453908 
   57700   0.64480176    298.87849   -121.97685 
   57800   0.64388771    300.13625   -22.600772 
   57900   0.64341755    296.57717     49.52484 
   58000   0.64292355    298.02288   -72.299065 
   58100   0.64257941    299.72797   -59.677008 
   58200   0.64223409    296.73978    -4.500375 
   58300   0.64181661    296.36038   -237.45184 
   58400   0.64146753    297.34478   -198.09664 
   58500   0.64157272    296.54599    -188.8659 
   58600    0.6420614    302.86697    -118.9377 
   58700   0.64280084      302.964   -24.587855 
   58800   0.64311185    297.44656   -81.230147 
   58900   0.64325159    298.35076   -7.0792942 
   59000   0.64379575    297.71099   -8.9907731 
   59100   0.64453531    298.47727    124.70362 
   59200   0.64521853    302.47931    325.80713 
   59300   0.64520329    300.30794    195.33389 
   59400   0.64491224    296.81467    83.373113 
   59500   0.64461123    295.66347   -60.949179 
   59600   0.64425578    296.53535   -67.151893 
   59700   0.64421716    298.82869   -19.457526 
   59800   0.64444059    301.47021   -123.26423 
   59900   0.64496078    298.78181   -143.77612 
   60000   0.64473206     298.1023   -219.94888 
   60100   0.64457797    295.64574   -163.26539 
   60200   0.64411471    299.38818   -48.488888 
   60300   0.64371768    299.51503   -96.734053 
   60400   0.64405521    296.86889   -299.41774 
   60500   0.64483423    296.08306   0.68916677 
   60600   0.64527932    299.12573    212.86999 
   60700   0.64509664    298.30399   -89.504407 
   60800    0.6443564    297.36553   -38.704355 
   60900   0.64276888    297.78519   -87.972567 
   61000   0.64111615    297.66864   -102.19199 
   61100   0.64026527    296.99728     215.8708 
   61200   0.64029805    296.34661   -87.623374 
   61300   0.64130552    296.36095   -67.355063 
   61400   0.64273557    299.52568     223.1009 
   61500   0.64359672    299.36392    153.77589 
   61600   0.64373525    299.27687   -244.70932 
   61700   0.64368382    295.00864   -196.85899 
   61800    0.6433506    298.24397    42.573544 
   61900   0.64322675    298.32824   -33.863392 
   62000   0.64344764     297.2878   -143.28523 
   62100   0.64343466    296.43436   -279.84807 
   62200   0.64348335    298.50401   -123.77775 
   62300   0.64348486    297.57518    58.918085 
   62400   0.64384749    298.67229    -30.37206 
   62500   0.64431131      296.201   -75.650443 
   62600   0.64428783    299.64648   -140.53819 
   62700   0.64449316    300.85569   -24.876395 
   62800   0.64459312    297.50194    81.781975 
   62900   0.64463628     295.7349    107.28793 
   63000   0.64430126    296.02714   -47.407682 
   63100   0.64360616    295.47898   -338.74819 
   63200   0.64291081    299.79068   -33.782847 
   63300   0.64267901    296.81502    41.691207 
   63400   0.64249842    297.91202    -219.9964 
   63500   0.64186294    299.01377   -199.73191 
   63600   0.64075817     300.9057    77.696655 
   63700   0.63965763    297.86385    45.042111 
   63800    0.6392365    298.44846   -123.03106 
   63900   0.63940835    298.13076   -36.271027 
   64000   0.64029898    298.75507    177.57175 
   64100   0.64118044    301.79162    348.86066 
   64200   0.64176749    301.97711   -117.39228 
   64300   0.64218419    300.39924   -231.45226 
   64400   0.64268312    296.70012   -14.754466 
   64500   0.64353461    295.01573  -0.90603775 
   64600   0.64409158    295.27107   -18.507086 
   64700   0.64387677     298.1284     16.08928 
   64800   0.64295727    300.23836   -96.643606 
   64900    0.6416853    298.33879   -239.73542 
   65000   0.64118481    295.71202   -19.061522 
   65100   0.64152964    297.94289    76.106618 
   65200   0.64255199    297.60091    12.428224 
   65300   0.64360839    297.78318    122.12466 
   65400   0.64415191    299.35901    49.737174 
   65500   0.64453832    297.73534   -50.344575 
   65600   0.64457494    295.66866    31.743424 
   65700   0.64416719    300.16082     46.71351 
   65800   0.64366809    297.33754   -37.534642 
   65900   0.64240557    299.00565    52.098148 
   66000   0.64087078     300.5454   -255.50309 
   66100    0.6401655     299.7947   -205.03111 
   66200   0.63973056    297.09539    40.068038 
   66300   0.63947331    297.97514     23.93708 
   66400   0.63988147    296.23382   -42.504727 
   66500   0.64060841    298.56755    37.945503 
   66600   0.64138946    301.84049   -19.747944 
   66700   0.64199883    299.38857   -28.928424 
   66800   0.64226455    299.98705    131.59429 
   66900    0.6422864    297.58705    165.39047 
   67000   0.64226699    296.64433    97.904106 
   67100    0.6420625    300.00158   -52.183138 
   67200   0.64194144    300.12834   -96.780951 
   67300    0.6421938     298.8873    10.501803 
   67400   0.64268692    298.89949   -91.817709 
   67500   0.64350427    298.74843   -165.50424 
   67600   0.64497526    298.85901    304.85259 
   67700   0.64579524    299.67059    82.988054 
   67800   0.64640754    299.83976    243.86146 
   67900   0.64668115    296.03626     17.19578 
   68000   0.64636137    295.90587   -221.96976 
   68100   0.64656762    296.30546    246.22657 
   68200   0.64701334    299.32741    159.65911 
   68300   0.64783083     299.7677    35.425246 
   68400   0.64806762    298.40318    21.898594 
   68500   0.64769445    294.87648    171.49195 
   68600   0.64773314     295.8715    60.247191 
   68700   0.64785161     296.4315     74.98154 
   68800   0.64786256    300.70565    116.40281 
   68900    0.6477475    296.83987    212.41031 
   69000   0.64779096    297.91768    102.82313 
   69100   0.64779704    295.49797   -49.167398 
   69200   0.64765254    295.37628    147.57748 
   69300   0.64753375    296.66512   -86.466991 
   69400   0.64775998    296.82549   -27.866846 
   69500   0.64796668    296.64741    149.05379 
   69600   0.64754079    299.81426    -18.34955 
   69700   0.64721324    297.83955    49.920598 
   69800     0.646449    296.68794     56.51131 
   69900   0.64522896    296.06324   -179.30842 
   70000   0.64453182    297.07597    -28.95777 
   70100   0.64440134    299.89228    76.933489 
   70200   0.64530832    298.30702     35.41072 
   70300   0.64654969    297.37849    112.81721 
   70400    0.6471602    297.39814    64.274513 
   70500   0.64703039    297.21566    74.503561 
   70600      0.64594    296.69786   -50.611215 
   70700   0.64477515    301.23738   -240.66679 
   70800   0.64418022    296.49907    15.104028 
   70900   0.64339064    298.33833    73.109949 
   71000   0.64298974    297.37773     92.83547 
   71100    0.6428111    299.52166    3.6380996 
   71200   0.64313124    300.47833   -24.396174 
   71300    0.6437627    298.34239   -68.079404 
   71400    0.6443417    298.37491   -140.78834 
   71500   0.64507953    299.21043   -18.349649 
   71600   0.64671923    296.89992   -70.992674 
   71700    0.6488904    299.34171   -80.243864 
   71800   0.65026463    298.72026    94.065926 
   71900   0.65061297    299.09109   -18.494559 
   72000   0.65000539     299.0041   -25.545027 
   72100   0.64890729    299.87939   -154.20462 
   72200   0.64794232    298.69483   -11.379227 
   72300   0.64721127    296.69351    69.936564 
   72400   0.64681855    298.37377    123.30083 
   72500   0.64631401    298.11155   -32.361578 
   72600   0.64566923    297.31693    7.1340245 
   72700   0.64510837    296.51311    103.19136 
   72800   0.64409916    300.11492   -47.487959 
   72900    0.6433777    301.13604   -83.381084 
   73000   0.64343315    298.70309    157.27409 
   73100   0.64354918    298.60545    8.2637124 
   73200   0.64402275    296.76037    112.97445 
   73300    0.6448491    296.37045   -135.49329 
   73400   0.64572563    299.91796   -62.080936 
   73500   0.64625788    300.17283    28.219115 
   73600   0.64634842    298.30451   -151.71492 
   73700   0.64616285    295.99128   -103.11976 
   73800   0.64682264    297.78147    98.935829 
   73900   0.64746744    299.34286   -77.066865 
   74000   0.64770026    298.49642   -132.46349 
   74100   0.64808205     296.8649   -9.0638877 
   74200   0.64807334    297.11673   -16.904537 
   74300   0.64769618    299.12496    37.263131 
   74400   0.64774967    299.01145    273.46864 
   74500   0.64822115    297.98266    119.53884 
   74600   0.64880707    297.66621    104.52536 
   74700   0.64903753    299.27554   -43.997618 
   74800   0.64947117     300.8687    -92.32018 
   74900   0.64992442    296.38204   -3.2753809 
   75000   0.65006865    298.76446   -64.541442 
   75100   0.65049197    296.19382    87.974021 
   75200    0.6508419    298.36327   -45.210479 
   75300   0.65107003    297.34268   -61.916953 
   75400   0.65081267    298.44846    -89.55003 
   75500   0.65050644    297.34263     130.4019 
   75600   0.65058042    295.09858    11.349036 
   75700   0.65098709    294.59411    7.9404884 
   75800    0.6515007    297.82354    42.740145 
   75900   0.65136457    299.54392     93.55422 
   76000   0.65077287    297.45643   -65.400048 
   76100   0.65059657    296.15574    77.518284 
   76200   0.65050728     296.2464   -145.53411 
   76300   0.65029727    297.61127   -103.38577 
   76400    0.6501125    297.51093    139.94387 
   76500   0.64964099    300.06972   -155.11643 
   76600   0.65018317    295.97845   -141.68887 
   76700   0.65081686     297.6549    36.513674 
   76800   0.65134768    296.67572   -67.396688 
   76900   0.65160856    297.68268   -97.361474 
   77000   0.65162234    297.63409    23.992633 
   77100   0.65102996      296.328   -115.74859 
   77200   0.64970489    293.77465    29.040472 
   77300   0.64785097    294.72724    84.699508 
   77400   0.64705794    296.15938   -12.852738 
   77500   0.64670875    298.23283   -121.74031 
   77600   0.64709823    298.21262    176.81801 
   77700   0.64786224     299.6344    155.82975 
   77800   0.64905766    297.11293   -48.670423 
   77900   0.65016525    297.05329   -128.66937 
   78000   0.65050694    299.14229    56.234709 
   78100    0.6500347      298.661    262.68851 
   78200   0.64881565     301.0939    31.457568 
   78300   0.64724742    299.16904    -43.59016 
   78400   0.64564323     296.2045   -29.025543 
   78500   0.64463544    296.22135    105.25323 
   78600   0.64415207    298.65119    77.956962 
   78700   0.64428663    300.04568   -146.59459 
   78800   0.64507857    298.65471   -160.24582 
   78900    0.6462297    297.96304    108.82333 
   79000   0.64725391    298.97939     38.96252 
   79100    0.6479283    296.12525   -319.52039 
   79200   0.64800435    298.15439   -137.06788 
   79300   0.64748109    300.27836     150.6837 
   79400   0.64632276    297.74753    49.831168 
   79500   0.64531673    294.49152   -150.74696 
   79600   0.64455891    295.98376   -127.62274 
   79700   0.64454006    298.89009   -199.96791 
   79800   0.64511411     297.3236    237.46947 
   79900    0.6451039    297.27503    154.43326 
   80000   0.64499548    297.54057   -134.20302 
   80100    0.6450714    295.84625    100.28264 
   80200   0.64577972    295.88162    129.31892 
   80300   0.64685197    299.82569    44.400503 
   80400   0.64780687    300.27037    58.947921 
   80500   0.64850788    297.79183   -15.106175 
   80600   0.64876421    298.97175   -245.37309 
   80700   0.64925817    298.04748    157.47706 
   80800   0.64961192    296.12097    216.63851 
   80900   0.64929378    297.45277   -107.77505 
   81000   0.64828804    298.02088   -104.13917 
   81100   0.64696564    298.31982    139.89332 
   81200    0.6459893    297.20052   -116.79698 
   81300   0.64619449    297.61298   -80.679361 
   81400   0.64703837    300.18968   -124.87621 
   81500   0.64842282    300.72799    99.274092 
   81600   0.64928511    297.93336    167.78808 
   81700   0.64935558    296.90571    13.663124 
   81800   0.64880748    295.81729   -147.66931 
   81900   0.64826703    297.79158    92.722587 
   82000   0.64769578    299.28962     115.7882 
   82100   0.64640475    300.00928   -121.81886 
   82200   0.64500778     298.9051   -173.19593 
   82300   0.64420556    294.66254   -166.34635 
   82400   0.64388436    297.81495   -238.06156 
   82500   0.64468964    298.45333    43.657717 
   82600   0.64490978    298.11869    -9.426492 
   82700   0.64494113    299.71144   -314.23349 
   82800   0.64552751    296.90515   -157.56616 
   82900   0.64641296     297.5871    39.656758 
   83000   0.64775564    297.03047    50.355093 
   83100   0.64873922    295.95589    130.24104 
   83200   0.64908372    299.41076   -62.744825 
   83300   0.64936992    299.10454   -64.283911 
   83400   0.64926622    298.16879    62.961638 
   83500   0.64898803    297.71638    263.94777 
   83600   0.64869355    297.16216    159.73973 
   83700   0.64841018    298.19624   -53.701327 
   83800   0.64864618    301.01267   -26.853234 
   83900   0.64924673    299.62722   -161.04677 
   84000   0.64998486    296.21206   -121.12731 
   84100   0.65025158    294.36991    123.62877 
   84200   0.64986111    297.24076   -76.355255 
   84300   0.64928346    299.03803   -145.50009 
   84400   0.64851899    297.30419   -33.732138 
   84500   0.64759518    299.33003   -142.64835 
   84600   0.64707285     296.4304   -157.21045 
   84700   0.64694547    295.95186   -198.98868 
   84800   0.64752196    296.64882   -255.98302 
   84900   0.64843826     297.1546    176.21548 
   85000   0.64871542    299.28443   -20.007841 
   85100   0.64885862    297.36484   -16.107843 
   85200   0.64846476    297.18911    73.767987 
   85300   0.64748956    296.46467    84.243477 
   85400   0.64637718    300.34931    -292.9137 
   85500   0.64580616    298.87626   -200.97478 
   85600   0.64571875    297.86786    14.492337 
   85700   0.64617278    295.88115   -161.88514 
   85800   0.64705303    298.44437   -33.482914 
   85900   0.64809661    300.86067    127.71027 
   86000   0.64863118    299.65119    28.663941 
   86100    0.6485188    298.54721   -96.071786 
   86200   0.64862313    297.43991   -154.00947 
   86300   0.64890495    295.62271     51.72506 
   86400   0.64860459    298.79045    70.866305 
   86500   0.64817142    301.33794    74.318355 
   86600   0.64833415    297.05271    212.64864 
   86700   0.64883211    296.63111    275.22071 
   86800   0.64947496    296.78548    75.973242 
   86900   0.64962772    299.83307    66.281176 
   87000   0.64877269    300.48962    326.15107 
   87100   0.64717172    299.06143   -50.466649 
   87200   0.64601666    297.17028   -214.26927 
   87300   0.64595979    292.26039    39.394167 
   87400   0.64629982    299.66574   -74.050192 
   87500   0.64734172    299.31381   -74.710821 
   87600   0.64803872    298.75618     30.57919 
   87700   0.64791683    295.68207   -1.7991389 
   87800   0.64741402    297.53931   -57.147461 
   87900   0.64701222    298.69747   -118.81011 
   88000   0.64713071    295.87479    6.7512569 
   88100   0.64790403    294.96649    94.324385 
   88200    0.6489124    294.87584    263.67773 
   88300   0.64944563    299.19194    114.58259 
   88400    0.6497772    297.16523   -17.483743 
   88500   0.64967622    297.04126    47.325942 
   88600   0.64933553    296.04037    99.223966 
   88700   0.64904366    293.23218   -91.300176 
   88800   0.64967439    295.95733    273.89596 
   88900   0.65066806    298.00741    174.61153 
   89000   0.65187021    298.59528    1.2851972 
   89100   0.65232352    299.67956    52.360226 
   89200   0.65158031    296.31247    78.870384 
   89300   0.65014426    293.17242    205.01573 
   89400   0.64871264     298.6171     159.8657 
   89500   0.64828216    297.88244   -151.01649 
   89600    0.6485258    298.35923   -153.01481 
   89700   0.64903797    295.65077     149.6907 
   89800   0.64924349    298.70099    -99.73175 
   89900   0.64948789     298.5071   -23.020802 
   90000   0.64954906    297.23109    327.31333 
   90100   0.64994865    296.66866    299.05533 
   90200   0.65047498    297.15864   -40.678411 
   90300   0.65090983    299.79667    115.91115 
   90400   0.65112986    301.71623    6.0596324 
   90500   0.65140017    297.10163   -3.6092812 
   90600   0.65152931    297.47923    50.982205 
   90700   0.65145653    298.55343   -37.220677 
   90800    0.6506521    298.22569   -24.183618 
   90900   0.64924682    297.96904    76.132588 
   91000   0.64770097    299.83616   -28.328092 
   91100   0.64665925    299.28429   -227.28353 
   91200   0.64602156    295.80247    39.258189 
   91300   0.64541899     298.0213    -128.3734 
   91400   0.64612555    297.50458    25.821879 
   91500   0.64767161    295.83943   -67.534492 
   91600     0.649684    300.08571   -246.04089 
   91700   0.65184563    300.41875    75.250015 
   91800   0.65301573    301.32913     221.2801 
   91900   0.65312415    300.50537    40.809482 
   92000   0.65263531    295.82788   -67.812214 
   92100   0.65147975    296.58024   -32.763915 
   92200   0.65062433    296.74068     151.5556 
   92300   0.65035105    299.04997     16.39143 
   92400   0.65015371    299.64881   -244.26484 
   92500   0.65028153    298.84362   -22.943323 
   92600   0.65002743     295.8852    5.4233016 
   92700   0.64963371     297.3387    123.25992 
   92800   0.64962181    298.52139   -158.61978 
   92900   0.64982757    299.52686   -209.38609 
   93000   0.65003912    298.44516    94.991278 
   93100   0.64994856    297.22282    54.661083 
   93200   0.64964203    296.43556   -62.009935 
   93300   0.64938617    299.45468    -60.75143 
   93400   0.64988937    295.25278   -13.856792 
   93500   0.65031715    293.72312    59.474555 
   93600   0.65001588     295.3571    238.35306 
   93700   0.65003101     300.2571   -48.430053 
   93800   0.65037614    298.13522   -226.40012 
   93900   0.65091415    296.00351     312.8248 
   94000   0.65107363    295.52696    203.33573 
   94100   0.65103589    296.07539   -240.20573 
   94200   0.65148785     299.4452   -11.127012 
   94300   0.65214898    298.93174    109.05708 
   94400   0.65260604    297.22207   -21.748739 
   94500   0.65206865    298.92539   -97.252752 
   94600   0.65115268    296.59909    11.954284 
   94700   0.65011999    297.36774   -20.648842 
   94800   0.64925504    299.93755   -15.458673 
   94900   0.64845959    300.44426   -53.466124 
   95000   0.64787435    298.90809   -160.54585 
   95100   0.64759332    297.41593     149.5946 
   95200   0.64737053    292.88849    259.33068 
   95300   0.64667847    297.12914   -62.290856 
   95400   0.64649094    298.56668   -25.943376 
   95500   0.64700502    298.80384    33.526253 
   95600   0.64827483    298.14043    27.333621 
   95700   0.64977884     296.7582    89.099769 
   95800   0.65085125    299.60506    134.93193 
   95900   0.65152165    300.34125   -45.581592 
   96000   0.65167981    300.04408    11.514875 
   96100   0.65135416    296.35843   -51.858325 
   96200    0.6512114    296.73697    18.040345 
   96300   0.65082412    300.25398   -116.69423 
   96400   0.65087544    299.18475    63.412129 
   96500   0.65120903    298.46766     174.6629 
   96600   0.65146808    297.03699   -40.732341 
   96700   0.65206656    298.39904   -152.73485 
   96800   0.65268779    298.92271   -186.10085 
   96900   0.65357766    296.39187    235.74956 
   97000   0.65333926    299.29159    120.80533 
   97100   0.65311547    293.80804   -184.05335 
   97200   0.65302396    293.56534   -13.742807 
   97300    0.6526903    297.32685    32.619374 
   97400   0.65238522    296.77828    26.701666 
   97500   0.65156614    301.14693   -137.30311 
   97600   0.65103165     299.1068   -30.826785 
   97700   0.65093137     300.1116   -277.99934 
   97800   0.65195893     295.3208   -176.34741 
   97900   0.65320947    296.72639   -1.6483089 
   98000   0.65412436    298.19072   -89.379859 
   98100   0.65472739    298.13398   -88.771069 
   98200   0.65472205    297.12519   -95.661231 
   98300   0.65425358    297.72083   -33.589069 
   98400   0.65372401    297.15676   -192.08465 
   98500   0.65364208    293.95126   -132.73875 
   98600   0.65399499    295.86163   -92.576039 
   98700   0.65449464     297.0677    171.03799 
   98800   0.65478361    298.64329   -19.739246 
   98900   0.65504444    298.32213   -101.08332 
   99000   0.65547517    294.97898   -55.946597 
   99100   0.65524175    295.79429    97.988858 
   99200   0.65457241    301.76995    143.63269 
   99300   0.65364203    298.93906    63.842678 
   99400    0.6523151    295.68064    128.46286 
   99500   0.65092412    291.98845     27.83954 
   99600   0.65029368    297.32827   -85.187295 
   99700   0.65074731     296.9402   -100.43022 
   99800   0.65177207    299.76534    158.85531 
   99900   0.65256115    299.27257    216.54768 
  100000    0.6534738    297.83198    124.70699 
  100100    0.6539288    295.79912   -53.344825 
  100200   0.65399917      298.372    17.105808 
  100300   0.65431131    298.70921    174.77538 
  100400   0.65437257    300.92416   -46.002574 
  100500   0.65448479    300.70741   -101.83354 
  100600   0.65428026    297.25903   -37.946691 
  100700   0.65335193    296.11293    -148.3525 
  100800   0.65225514     298.3142    -120.9822 
  100900   0.65164582    295.94619   -219.27257 
  101000   0.65161845    299.99334   -67.581887 
  101100   0.65181175    297.20986    18.087884 
  101200    0.6517195    298.16403   -82.035325 
  101300   0.65139153    296.28826   -11.560367 
  101400   0.65113532    296.81968     -51.7428 
  101500   0.65102474    298.25509   -118.34192 
  101600   0.65163241    298.46073   -22.936934 
  101700   0.65303714    297.96777    233.86759 
  101800   0.65470136    298.71145    67.262974 
  101900   0.65629403    297.60262    48.002821 
  102000   0.65708853    298.34063    116.92368 
  102100   0.65678431    296.35718    135.62056 
  102200   0.65555098    298.73158   -102.59129 
  102300   0.65455345    300.71526     22.22073 
  102400   0.65313784    299.41431    118.59634 
  102500   0.65119321    298.20121    54.570291 
  102600   0.64988925    296.04439   -239.63342 
  102700   0.64970001    296.28532   -290.61522 
  102800   0.65032199    296.71909   -181.13535 
  102900   0.65189294    299.40603    104.56572 
  103000   0.65304364    297.68337     87.45463 
  103100   0.65330954    298.08849   -67.683379 
  103200    0.6533529    297.42379   -118.02052 
  103300   0.65303954    297.57558   -112.03875 
  103400   0.65292363    299.18487   -148.01419 
  103500   0.65335477    298.03391     110.6555 
  103600   0.65379697    295.90447    87.163223 
  103700   0.65409512    295.53816   -18.177758 
  103800   0.65367413    299.92928   -103.42226 
  103900   0.65284511    299.17831    131.35347 
  104000   0.65164301    299.07916   -227.63108 
  104100   0.65118072    295.80154   -149.38396 
  104200   0.65165018    297.63741    109.86955 
  104300   0.65227422    300.13753   -75.002653 
  104400   0.65292113    300.43583   -36.350323 
  104500   0.65279493    298.01126   -131.43387 
  104600   0.65270842    297.28164     61.41379 
  104700   0.65246673    297.14183    103.50047 
  104800    0.6524838     298.4199   -139.02409 
  104900   0.65282298    297.79039   -230.62563 
  105000   0.65299378    297.37844    319.53296 
  105100   0.65314248    298.56347    407.90426 
  105200   0.65300778    301.25521   -38.484452 
  105300   0.65312225    296.72692   -169.84943 
  105400   0.65359264    295.94626    6.3300497 
  105500   0.65408641    298.55896    274.74442 
  105600   0.65492733    300.35435    176.24147 
  105700   0.65542592    298.36183   -296.57033 
  105800   0.65543084    295.82973   -137.57523 
  105900   0.65507183    297.60207    187.00163 
  106000   0.65446391    296.45232   -190.90272 
  106100   0.65409085    299.56236   -164.99805 
  106200   0.65414505    297.77632    19.318022 
  106300   0.65417757    300.77247    112.49262 
  106400   0.65435441     297.8748    247.88699 
  106500   0.65451646    298.81499    -266.6205 
  106600   0.65537165    297.71096   -314.67637 
  106700   0.65592056    298.97687    219.78293 
  106800   0.65576293    301.02925     400.1385 
  106900   0.65519241    298.36909   -34.021197 
  107000   0.65434194    297.13434   -242.46579 
  107100   0.65306999    296.83181    23.947559 
  107200   0.65209984    297.58001    53.515588 
  107300   0.65173847     297.9881    112.78712 
  107400   0.65154919    298.85854   -284.25697 
  107500   0.65163204    298.66471   -96.202574 
  107600   0.65208173    298.75128    284.51993 
  107700   0.65233966    296.20521   -34.909877 
  107800   0.65266905    297.69525   -285.17714 
  107900   0.65301024    300.31214   -190.65791 
  108000   0.65376459    298.15004    115.97346 
  108100   0.65441109    297.09119    111.03424 
  108200   0.65554726    296.88098   -45.764138 
  108300   0.65638651    297.11375   -74.533001 
  108400   0.65649663    299.70575    85.254894 
  108500   0.65669375    297.98122    167.31465 
  108600   0.65688965     297.4912    251.64412 
  108700   0.65654663    297.70339    110.45042 
  108800   0.65546736    299.28576    208.05784 
  108900   0.65365492    298.95971    88.492994 
  109000   0.65219144     294.6551    127.26518 
  109100    0.6511362    296.92723    41.017526 
  109200   0.65087354    297.32025    75.492688 
  109300   0.65128993     299.2163    28.606786 
  109400   0.65171928     299.5548    17.263914 
  109500   0.65238661    294.49148   -98.333109 
  109600   0.65243072    297.44653   -192.87814 
  109700   0.65215821    297.16708    153.49675 
  109800   0.65182574    298.76671    113.50047 
  109900   0.65172267    299.06432   -136.27877 
  110000   0.65244218    297.46881   -60.014475 
  110100   0.65334703    295.58516    280.89877 
  110200   0.65408512    295.47921    196.85922 
  110300    0.6546456    300.62954    128.81191 
  110400   0.65505519    299.97335    73.317189 
  110500   0.65486692    298.38181    399.99065 
  110600   0.65414816    297.03214    158.82913 
  110700   0.65379628    296.15941   -63.821503 
  110800   0.65362433    298.92156   -122.19261 
  110900   0.65356349    297.65081    243.52488 
  111000   0.65350131    297.45375    228.34711 
  111100   0.65341198    295.81661   -79.285189 
  111200    0.6530755    294.40288   -107.09184 
  111300   0.65269516    295.64296   -50.797428 
  111400   0.65246858      298.289    56.580857 
  111500   0.65256029    299.66141  -0.66067565 
  111600   0.65344034    296.60983    127.06279 
  111700   0.65448192     298.5656    198.44605 
  111800   0.65511857    298.00863   -123.65778 
  111900   0.65562371    297.41261     94.64398 
  112000   0.65622093    300.38211    281.83386 
  112100   0.65642835    297.62015    115.50234 
  112200   0.65660369    295.27579   -189.04716 
  112300    0.6562093    294.95678     55.96038 
  112400   0.65584301    298.81951    367.88228 
  112500   0.65501432    297.21321   -30.723649 
  112600   0.65406198    296.72487   -145.11151 
  112700   0.65323594    299.02571   -1.5931443 
  112800    0.6524122    298.84108    27.993512 
  112900    0.6516496      298.438    24.534566 
  113000   0.65074558    299.91325   -227.60133 
  113100    0.6503273    298.46673   -217.71424 
  113200   0.65030382    297.31937    11.242027 
  113300   0.65082273    297.93318    168.55449 
  113400   0.65132917     301.1785    33.837802 
  113500   0.65164617    299.24211   -210.12071 
  113600   0.65177751     298.4564     4.542721 
  113700   0.65241868    297.66893    219.61189 
  113800    0.6533554    296.42699    18.636659 
  113900   0.65441909      297.864   -140.63057 
  114000     0.655335    299.69111    29.703335 
  114100   0.65607744    299.64295    142.25849 
  114200   0.65651634    295.89326    254.04878 
  114300   0.65665932    296.56221     64.76332 
  114400   0.65655694    298.55759   -253.97482 
  114500   0.65608954    299.16316    185.18648 
  114600   0.65493627    300.43634    228.45534 
  114700   0.65348015     295.1349    117.30379 
  114800    0.6520459     297.3387    4.8357299 
  114900   0.65112442    299.08996    159.13991 
  115000   0.65075243    299.45285   -59.400912 
  115100   0.65143485    298.13582    136.13093 
  115200   0.65227409    299.13886   -68.783589 
  115300   0.65337383    299.30697   -81.344156 
  115400   0.65450789    297.76356     152.0676 
  115500   0.65525137    293.45822    247.12267 
  115600   0.65528685    294.22115   -99.418201 
  115700   0.65504238    295.62606   -86.821257 
  115800   0.65484888    295.96981    240.69279 
  115900   0.65441116    299.48286   -57.582843 
  116000   0.65375573    297.75058   -229.13633 
  116100   0.65347644    297.70636     117.1038 
  116200     0.652889    298.13863    108.83131 
  116300   0.65285904    295.29564    79.535966 
  116400   0.65337185    296.98416    94.814428 
  116500   0.65396345    298.40872   -102.81834 
  116600   0.65456044    301.07581    -253.1891 
  116700    0.6550725    300.93265    172.24002 
  116800   0.65580248    298.94784    36.023338 
  116900   0.65677638    295.80803    36.740586 
  117000    0.6572962    299.75243    46.865075 
  117100   0.65807614    298.86363   -28.601175 
  117200   0.65879176      298.576   -114.59664 
  117300    0.6592799    295.74412    188.65412 
  117400    0.6593693    297.24959    5.8941296 
  117500   0.65904164    296.90748   -165.81714 
  117600   0.65845891    299.44051    254.49498 
  117700    0.6581272    298.35189    151.33724 
  117800   0.65750186    297.66543    26.698442 
  117900   0.65650805    297.53253   -17.059869 
  118000   0.65499761    299.05244   -169.14529 
  118100     0.653286    298.31075    87.551619 
  118200   0.65187611     298.8313    61.768301 
  118300   0.65124189    296.65696   -295.32312 
  118400   0.65186962      295.976   -181.91585 
  118500   0.65338134    299.60066    5.2368425 
  118600   0.65531746    300.59323   -195.21832 
  118700   0.65682343    298.48813   -55.259258 
  118800   0.65689354    298.47925    167.00265 
  118900   0.65597225    298.54436    88.191805 
  119000   0.65466622    295.91275   -165.99384 
  119100   0.65367429    296.63959    74.175443 
  119200    0.6533486    297.77217    78.620716 
  119300   0.65287383      299.993   -29.446826 
  119400   0.65283172    297.45469   -56.807362 
  119500   0.65343768    297.28615   -185.26403 
  119600   0.65440588    297.35461   -101.87232 
  119700   0.65533792    301.78983    107.53588 
  119800   0.65588072    302.06925    -234.7287 
  119900   0.65620268    297.73922    -268.1717 
  120000   0.65664534    297.88592    117.25472 
  120100   0.65707102    296.08778    51.154613 
  120200   0.65755048    298.88585   -177.28396 
  120300   0.65779858    300.07838    54.174969 
  120400   0.65703719    301.44085    160.25582 
  120500   0.65597846    298.57877    290.19164 
  120600   0.65503143    294.30115    128.87104 
  120700   0.65440889    296.39354   -153.56816 
  120800   0.65505318    299.33324   -75.937276 
  120900   0.65631392    300.64018    192.78712 
  121000   0.65730704    297.98526    -129.0162 
  121100    0.6582703    298.88106   -105.40561 
  121200    0.6591674    296.89561    7.5325041 
  121300   0.65958972    295.63277    46.784311 
  121400    0.6595728    298.44228    231.05633 
  121500    0.6595004     299.5988   -16.946447 
  121600   0.65933534    298.29814   -218.17567 
  121700   0.65924788    297.32046    149.65463 
  121800   0.65910395    295.84151   -33.205155 
  121900   0.65898947    297.85287    41.543236 
  122000   0.65903289    299.09314    327.66611 
  122100    0.6591818    298.46292   -153.05619 
  122200   0.65983765     297.9387   -213.07954 
  122300   0.66064819    296.07137    69.993744 
  122400   0.66086131    295.42056   -162.23306 
  122500   0.66105365    295.58508   -245.38269 
  122600   0.66106493    299.06142    78.063374 
  122700   0.66055833    300.53711    -11.64095 
  122800   0.65966881    295.98861     -64.0393 
  122900   0.65876738    298.07242   -25.690463 
  123000   0.65820867    296.09308    14.355582 
  123100   0.65824404    300.72218   -93.604536 
  123200    0.6587918    298.53121    250.97317 
  123300   0.65874229    298.60407   -85.378214 
  123400   0.65877399      295.419   -24.557352 
  123500   0.65806288    295.66318    96.756157 
  123600   0.65731893    298.24712    154.80588 
  123700   0.65703582    296.18838    42.827813 
  123800   0.65654805    296.82996    -18.78342 
  123900   0.65560702    301.09013   -76.503861 
  124000   0.65507625    301.14718   -74.542372 
  124100   0.65520491    299.08099    223.21417 
  124200   0.65571372    298.16676   -21.501579 
  124300   0.65664523     296.1418    18.494275 
  124400   0.65739092    296.01017    210.03809 
  124500   0.65746657    300.44554    142.17064 
  124600   0.65743479    299.76434    90.436829 
  124700   0.65692715    297.98269    37.475429 
  124800   0.65650905    296.19663    54.892377 
  124900   0.65618222     298.8993    241.21238 
  125000   0.65647139    297.55394   -4.5405721 
  125100   0.65715662    299.30027   -203.44848 
  125200   0.65834412    295.72228    8.2495744 
  125300   0.65920097    296.88929    287.55103 
  125400   0.66012092    298.25012   -24.827811 
  125500   0.66115119    298.57139   -123.99009 
  125600   0.66189004    299.11328     96.59372 
  125700   0.66210035    293.62501   -36.770345 
  125800   0.66182637    297.65638   -102.77325 
  125900   0.66117453     296.7247   -133.22688 
  126000   0.66022154    299.75872   -153.37853 
  126100   0.65918737    298.28274    76.457983 
  126200   0.65781265     300.6819    131.40894 
  126300   0.65603382    300.13563   -41.383484 
  126400   0.65452159     299.6711    115.08169 
  126500   0.65383012    298.01766    40.450713 
  126600   0.65407844    295.71815   -238.13565 
  126700   0.65513179    296.89459     -53.9253 
  126800   0.65620822    299.15036    75.145745 
  126900   0.65650396    299.64777   -29.122393 
  127000   0.65585624     297.1893   -8.9679913 
  127100   0.65474848     296.1722   -270.35545 
  127200   0.65409922    298.56125   -215.71393 
  127300   0.65442796    298.17674     20.85019 
  127400   0.65566345    300.70579   -142.53338 
  127500   0.65642697    297.23313   -165.51706 
  127600   0.65624739    294.02184    257.20669 
  127700   0.65590607    295.78507   -66.214115 
  127800   0.65559335    298.96979   -97.680997 
  127900   0.65578889    299.18737    -117.6227 
  128000   0.65653261    299.67602   -143.17081 
  128100   0.65769915    297.52335    117.58252 
  128200   0.65868518    297.66961    129.70214 
  128300    0.6592466    295.47127    3.8356549 
  128400    0.6593085     299.4792   -256.94838 
  128500   0.65947579    299.18053     19.97441 
  128600   0.65878093    298.50744     75.07453 
  128700   0.65767032    298.11807    200.61843 
  128800   0.65643229    295.56562   -82.996271 
  128900   0.65582595    298.27776   -254.52116 
  129000   0.65613057    298.73482   -67.827928 
  129100   0.65677584    300.47423    246.66961 
  129200   0.65775089     299.8156   -66.793657 
  129300   0.65945642    295.81164    30.404529 
  129400   0.66035799    298.28396    178.62989 
  129500   0.66084446     299.1502    338.26948 
  129600   0.66082203     298.7893   -131.18773 
  129700   0.66093013     297.0144   -70.984696 
  129800   0.66135719    295.64644   -58.682774 
  129900   0.66181355    297.11016    254.70395 
  130000   0.66161218    297.27988    310.92317 
  130100   0.66088446    298.03964    -1.547856 
  130200   0.65969658    299.17335   -113.92325 
  130300   0.65851087    299.96276    12.160405 
  130400     0.657512    299.23439    182.47786 
  130500   0.65656509    298.30385     -182.011 
  130600   0.65589604    295.08648   -246.25586 
  130700   0.65583916    295.27803   -252.41316 
  130800    0.6560631    299.68136   -12.517346 
  130900   0.65672596    300.03369    56.444418 
  131000   0.65750397    298.55268   -272.06468 
  131100   0.65831938    295.73172   -149.70696 
  131200    0.6587388    296.63306    315.69486 
  131300   0.65921788    299.36296    127.49994 
  131400   0.65961954      297.444   -110.99583 
  131500     0.659736    295.73609    60.511307 
  131600   0.65990024     294.4456    303.10697 
  131700   0.65954968    298.52504    120.03819 
  131800   0.65845921    298.21342   -89.000044 
  131900   0.65719141    299.00845   -186.16355 
  132000    0.6566015    296.43024   -18.975951 
  132100   0.65738347     296.4466    281.16423 
  132200   0.65834049    297.12048   -116.69568 
  132300   0.65918067    299.43925   -107.64885 
  132400   0.65963687    298.18612   -13.463153 
  132500   0.65942088    297.29723   -29.286872 
  132600   0.65907336    295.76006    79.614466 
  132700   0.65851086    299.49126    95.264808 
  132800   0.65809715    299.86361   -102.82861 
  132900    0.6583391    297.23841    148.12325 
  133000   0.65838836    297.75871     136.5832 
  133100   0.65805041    297.88307      59.0775 
  133200   0.65753301    299.38111    59.309925 
  133300   0.65751127    299.14997    169.77199 
  133400   0.65753012    299.80829     -46.1316 
  133500   0.65809532    297.50986    204.70293 
  133600   0.65914359    296.49996    109.27887 
  133700   0.66025505    297.97563    -4.174618 
  133800   0.66094276    298.82029    202.76503 
  133900   0.66107291    301.36947   -59.655244 
  134000   0.66133966    297.37157   -79.538234 
  134100   0.66121525    295.08541    122.75823 
  134200   0.66099086    295.94586    116.51946 
  134300    0.6609321    296.69686    49.197925 
  134400   0.66048084     299.9201     166.3302 
  134500   0.66000739     297.7501    140.01677 
  134600   0.65905434    295.35512    56.893008 
  134700   0.65765778    295.54734    45.133763 
  134800   0.65673665    298.63007    73.483034 
  134900   0.65617308    299.25668    67.107907 
  135000   0.65595691    299.48286    17.201365 
  135100   0.65621207    299.14488   -32.030911 
  135200   0.65704507    295.44808    -139.9541 
  135300   0.65832545    295.44565   -115.36579 
  135400   0.65987609    296.58659    18.959407 
  135500   0.66074663    298.60952   -16.192815 
  135600   0.66089787    298.74165   -94.573144 
  135700   0.66034976     298.3323   -178.66987 
  135800   0.65937082     297.8883   -113.54276 
  135900   0.65873209    299.69109   -13.281698 
  136000   0.65841153    300.73017    155.27998 
  136100   0.65783848    300.54372    104.47668 
  136200   0.65784495    297.01558    77.588744 
  136300   0.65791356    295.13235    43.306914 
  136400   0.65795722    297.13203     198.5926 
  136500   0.65768468    297.32412    205.36354 
  136600    0.6573175    297.75039   -88.886714 
  136700   0.65752076    296.06541    21.332626 
  136800   0.65819496    294.71071    70.238664 
  136900     0.659055    296.27135   -248.00273 
  137000   0.66031892    297.59773   -7.9537763 
  137100   0.66091966    298.02592    173.59824 
  137200   0.66050056     298.3312   -41.511484 
  137300   0.65946944    297.01439   -15.392066 
  137400   0.65898881    294.36369   -122.72584 
  137500   0.65942461    298.64798   -56.234648 
  137600   0.66040482    299.88494   -46.271154 
  137700   0.66190003    297.65017    22.113425 
  137800   0.66284961     297.2285   -169.80383 
  137900   0.66322761     296.4865   -71.293376 
  138000   0.66305173    298.84441    145.01449 
  138100   0.66260684    301.59176   -72.423044 
  138200   0.66222105    297.22133    26.234778 
  138300   0.66111927    297.70637    70.224832 
  138400   0.66045868    297.21666   -122.07986 
  138500   0.66023488    297.75153   -2.7080839 
  138600   0.66020003    300.97111   -157.54109 
  138700   0.66052736     300.1403   -131.36425 
  138800   0.66066503    298.28737    132.65332 
  138900   0.66094513    296.36157   -140.45611 
  139000   0.66163834    298.35171   -150.51029 
  139100   0.66299353    298.68626    174.59501 
  139200   0.66399239    299.74087    70.991149 
  139300   0.66417116    298.56398   -107.81058 
  139400   0.66388794    297.73476    45.214431 
  139500   0.66371427    296.45366    141.97266 
  139600   0.66392198    296.42268    6.7763956 
  139700   0.66419616    298.82689    93.464551 
  139800   0.66374026    301.58227    238.47657 
  139900   0.66240367    298.51144   -80.671009 
  140000   0.66184358    296.51736    179.22202 
  140100   0.66186526     296.3672   -61.881449 
  140200   0.66233014    298.27228   -141.61423 
  140300   0.66280078    299.61532   -6.7237442 
  140400   0.66279512    300.43413    219.30084 
  140500   0.66198854    298.66153    31.749353 
  140600   0.66148165    296.47882   -316.63603 
  140700   0.66185009    298.96756   -14.405286 
  140800   0.66244654    300.19927    97.424489 
  140900   0.66289735    300.72367     213.6719 
  141000   0.66320009    299.10544    10.782328 
  141100   0.66333719    297.50337   -214.07099 
  141200   0.66412806    297.25346   -56.665543 
  141300   0.66453926    299.20579    45.577471 
  141400   0.66422747    300.66855    85.136668 
  141500    0.6634987    299.47356   -108.84075 
  141600   0.66284435     296.1995   -48.704155 
  141700   0.66254039    296.86671     22.24877 
  141800   0.66300967     297.2182    89.061172 
  141900   0.66336025    297.96475   -207.17702 
  142000    0.6631217    297.52699   -219.12215 
  142100   0.66210025    295.75165    142.75915 
  142200   0.66150801    295.65051    35.517281 
  142300   0.66162563    297.13306   -46.096407 
  142400   0.66226097    299.41217   -135.84124 
  142500   0.66302071    300.52904    57.591707 
  142600   0.66293168    300.29023    102.10828 
  142700   0.66190669    296.11831    171.64144 
  142800   0.66054102    296.82064    100.69967 
  142900   0.65967752    296.84559   -130.96966 
  143000   0.65980059    299.43095    129.22775 
  143100   0.66003614    300.53037    136.71613 
  143200   0.66075263    297.73442    -75.03069 
  143300   0.66185997    295.19544   -268.22255 
  143400   0.66282985    297.23881    164.93989 
  143500   0.66331529    297.32971     37.13564 
  143600   0.66321822     298.8914    97.405358 
  143700   0.66227454    299.46229   -175.03407 
  143800   0.66109206    296.45608   -183.14779 
  143900   0.66035187    293.16434    138.95705 
  144000   0.66077059    295.15679    337.25684 
  144100   0.66128256    298.11718     -51.2864 
  144200   0.66144514     298.3279   -285.08678 
  144300   0.66168619     297.8727   -80.831099 
  144400   0.66184807    297.09589    167.45796 
  144500   0.66153517    299.02196    34.009355 
  144600   0.66182216    298.63357    69.578259 
  144700   0.66227808    298.42252   -2.2726165 
  144800   0.66269335    299.41985    146.45837 
  144900   0.66298264    297.91802    78.887659 
  145000   0.66280912     297.7028   -26.661204 
  145100   0.66192034    298.17005   -85.060824 
  145200    0.6604935    297.85011   -243.87013 
  145300   0.65906419     298.7225   -63.079965 
  145400   0.65794876    298.06342   -40.330511 
  145500   0.65808429    297.62576   -337.24993 
  145600   0.65924632    299.73671    -68.99153 
  145700   0.66038018    302.71278    81.697649 
  145800   0.66119388    300.20382    152.12062 
  145900   0.66186524    300.29413    85.304651 
  146000   0.66229854    299.03541   -165.08593 
  146100   0.66253447    299.93392    29.240741 
  146200   0.66294362    294.92034    390.57428 
  146300   0.66323284    296.97672   -75.174829 
  146400   0.66323338    297.56966   -160.86087 
  146500    0.6626627    301.44499    78.466267 
  146600   0.66213054    296.68047    147.19551 
  146700   0.66140725    296.95488    -167.8494 
  146800   0.66094886     297.9126   -56.535826 
  146900    0.6605668    298.73648   -199.83955 
  147000   0.65979719    298.90652    30.314301 
  147100   0.65895543     299.0351    336.74257 
  147200   0.65827654    297.43399   -86.447827 
  147300   0.65814457    297.95721   -298.73835 
  147400   0.65921859    299.04788    67.492945 
  147500   0.66050344      302.104   -61.240359 
  147600    0.6622476    297.93484   -18.155053 
  147700   0.66315148    297.58533    51.175251 
  147800   0.66263618    297.68807   -139.53487 
  147900   0.66139304    296.71129   -161.73023 
  148000   0.66041464    296.20404    21.632334 
  148100    0.6594735    298.85966   -199.21678 
  148200    0.6592229    299.08288   -391.28918 
  148300   0.65969822    296.74304   -147.46112 
  148400   0.66061352    295.70503    122.62238 
  148500   0.66170751    299.88074   -182.87754 
  148600   0.66297564     299.2023   -189.44684 
  148700   0.66390617    297.55946   -35.712101 
  148800   0.66460495    297.67064    264.03009 
  148900   0.66484889    299.49251    272.64649 
  149000   0.66505531    299.47627   -138.53611 
  149100    0.6653282    300.09273   -151.20596 
  149200   0.66503768    298.55055   -82.357941 
  149300   0.66465449    297.53488    125.20431 
  149400   0.66429656    298.82559    92.907538 
  149500   0.66419352    298.58937   -45.460193 
  149600   0.66398079    299.37076   -68.354641 
  149700   0.66324574    300.51746    127.43125 
  149800    0.6626065    298.90649    0.3310969 
  149900   0.66213961    298.08256    55.202944 
  150000   0.66187255    297.92022   -58.288215 
  150100   0.66180215    300.39995    -131.2408 
  150200   0.66177766    299.12586     38.28876 
  150300   0.66127702    298.60336   -112.37151 
  150400     0.661246     296.7591   -248.17398 
  150500   0.66167338    297.01467   -97.291598 
  150600   0.66200269    298.80839    -8.434669 
  150700   0.66193231    300.48065    270.90348 
  150800   0.66156335    299.26692    30.117108 
  150900   0.66142918     298.5687   -188.63139 
  151000   0.66173425     297.8128   -163.14101 
  151100   0.66296439    298.08881    178.70234 
  151200   0.66390202    299.55761    79.966787 
  151300   0.66431105    301.42727    162.65083 
  151400   0.66342637    300.27668    5.7209912 
  151500   0.66203249    297.00752    30.293808 
  151600   0.66065994     296.6575    214.06357 
  151700   0.65987121    297.87751    92.767129 
  151800   0.66037572    298.82381    -54.26865 
  151900   0.66187066    298.31958   -179.20657 
  152000   0.66325627    296.97203    154.80063 
  152100   0.66418098    297.75169    141.12293 
  152200   0.66474454    298.24889   -213.80339 
  152300   0.66481159    300.50799   -196.87728 
  152400   0.66437921    299.55273    187.48482 
  152500   0.66321686    296.86853   -132.98057 
[...]
  166800   0.66355206    295.60453   -38.093506 
  166900   0.66424235    298.73186     -156.113 
  167000   0.66520952    300.42164   -32.852904 
  167100   0.66627571    298.80342   -95.265669 
  167200   0.66729658    295.07549    137.27502 
  167300   0.66772085    298.82762    95.762967 
  167400   0.66741706    300.04337    91.885052 
  167500     0.666679    300.61379   -95.550152 
  167600   0.66602028    299.33351    -63.47667 
  167700   0.66524147    297.36136    18.479558 
  167800   0.66533259    295.18786     22.80867 
  167900   0.66529667    299.77786   -6.5240841 
  168000   0.66506771    300.01365   -182.22188 
  168100   0.66438269    296.45114    -192.3739 
  168200   0.66372812    293.05098    128.90577 
  168300   0.66412885    295.66119   -13.998714 
  168400   0.66547408    296.66375   -421.91211 
  168500   0.66684131    299.34058   -194.59515 
  168600   0.66798254    298.43955    80.966625 
  168700   0.66836416    296.40425    237.69897 
  168800   0.66793989       295.05   -207.68738 
  168900   0.66734246    298.32313   -154.22057 
  169000    0.6662662    299.69176    90.596068 
  169100   0.66470068    298.38173    212.54974 
  169200   0.66315793    296.94915   -140.41503 
  169300   0.66234004    297.01486   -249.23387 
  169400     0.662764    297.13249   -24.452456 
  169500   0.66429164    296.49366    139.72535 
  169600   0.66588392    300.93002     161.2168 
  169700    0.6669756    300.64265    74.732935 
  169800   0.66706425     299.3624   -145.60828 
  169900   0.66678877    296.72243    -190.1508 
  170000   0.66647477    298.53067   -78.256262 
  170100   0.66620132    296.78185   -19.131817 
  170200   0.66623107    298.07786   -203.13229 
  170300   0.66664941    297.44014   -443.76066 
  170400   0.66707891     295.7695   -132.21298 
  170500   0.66724717    296.16263     -11.8849 
  170600   0.66774025    297.95811   -225.33205 
  170700   0.66801554    298.81739   -345.60056 
  170800   0.66798889    298.42728   -75.936787 
  170900   0.66757209    298.73352    170.36759 
  171000   0.66737767    298.58447    99.816263 
  171100   0.66707854    301.37112   -113.73643 
  171200    0.6666662    298.27794   -132.99442 
  171300   0.66548236    298.28648    55.488081 
  171400   0.66441277    297.52155    86.232496 
  171500   0.66417671    297.60055   -372.84343 
  171600   0.66510225    295.88119   -116.20444 
  171700   0.66706403    296.92124    173.41762 
  171800   0.66810184    299.27229    201.09488 
  171900   0.66771959    299.22358   -9.5279261 
  172000   0.66679932    296.17698   -114.60024 
  172100   0.66550024    295.68814     4.187257 
  172200    0.6645223    298.15546    287.24313 
  172300   0.66437896    297.80511    21.986773 
  172400   0.66458236    295.52679    -236.7321 
  172500   0.66480632    298.51791    53.192331 
  172600   0.66457536    297.23454    360.54297 
  172700   0.66410763    299.49567   -7.3639608 
  172800    0.6644339    295.95818    -163.3029 
  172900   0.66521919    296.08777     132.4578 
  173000   0.66579606    298.37194    182.72943 
  173100   0.66564097     300.2404    166.15482 
  173200   0.66499958    297.28469    66.897319 
  173300   0.66400031    297.85202   -173.73523 
  173400   0.66353614    293.85683   -176.18532 
  173500   0.66416203    296.02834    126.71815 
  173600    0.6652029    296.93298   -98.433197 
  173700   0.66632427    298.76538   -106.32378 
  173800   0.66683951    299.30306     6.301062 
  173900   0.66646552    297.19298    32.128568 
  174000   0.66571512    297.69762    105.18282 
  174100   0.66505706    296.85455   -40.333879 
  174200   0.66461539    297.46985   -192.20463 
  174300   0.66457067    296.53534   -274.82208 
  174400    0.6646035     299.8541     120.3812 
  174500   0.66448904    297.73675   -88.139247 
  174600   0.66406951    296.43583   -170.35535 
  174700   0.66354062    300.90527   -41.059602 
  174800   0.66321874    298.21186   -38.035228 
  174900   0.66308946    295.56392   -87.081991 
  175000   0.66376696    297.88096   -47.354913 
  175100   0.66511322    298.35154   -11.095043 
  175200   0.66667786    299.73075    205.46327 
  175300   0.66737263    302.43896     130.7536 
  175400   0.66757829    297.47044    154.15977 
  175500   0.66736629    297.10917    150.83451 
  175600   0.66674565      296.575    69.933284 
  175700   0.66583252    298.85557   -99.409467 
  175800   0.66505558      299.738    116.57372 
  175900   0.66521328    298.64537    197.83532 
  176000   0.66555095    299.57371   -170.61831 
  176100   0.66577079    296.86892    10.872759 
  176200   0.66552985    296.48927   -1.9726405 
  176300   0.66539829    294.06845    85.028479 
  176400   0.66508771    297.54732   -76.433255 
  176500   0.66449073    298.13827   -207.52036 
  176600   0.66368694    298.45627    138.79804 
  176700   0.66295553    299.06312     125.9161 
  176800    0.6625862     296.6717   -301.92406 
  176900    0.6621482    296.30038   -125.50615 
  177000   0.66225016    297.64878    87.959495 
  177100   0.66271448    298.94987    168.25706 
  177200   0.66232929    299.17275   -48.820255 
  177300   0.66179829     298.7881   -55.276251 
  177400   0.66124049    298.48495   -43.607106 
  177500   0.66100278    296.97712    62.711121 
  177600   0.66114793    298.25683   -132.53183 
  177700   0.66169688    299.25279   -256.39428 
  177800   0.66246846    299.33304   -68.257575 
  177900    0.6628956    297.45703   -19.198225 
  178000   0.66340405    298.28673    51.623792 
  178100   0.66413619    297.51377    131.37929 
  178200   0.66467024    297.11026   -184.61718 
  178300   0.66514376    300.43936   -226.67182 
  178400   0.66581398    300.94535    252.63263 
  178500   0.66658967    299.23898    146.17769 
  178600   0.66746615    298.86357   -7.5594294 
  178700   0.66790327    298.30776    202.05652 
  178800    0.6677238    299.65436    223.80893 
  178900   0.66718857    301.45122     4.852083 
  179000   0.66650844    301.30353    168.66906 
  179100   0.66555386    296.33824   -56.325693 
  179200   0.66437462    296.81683   -151.50981 
  179300   0.66392516    296.92833    126.93648 
  179400   0.66420219    298.81253   -20.108559 
  179500   0.66537366    299.76537   -285.39026 
  179600   0.66705007    299.74638   -238.71552 
  179700   0.66810521    298.48803   -179.63909 
  179800   0.66857749    298.03916    78.779428 
  179900   0.66866514    293.26939    35.224867 
  180000   0.66799249    297.88293   -150.99682 
  180100   0.66677317    298.89615    118.99392 
  180200   0.66584045    297.34896    203.70392 
  180300   0.66545914    297.95876    55.476137 
  180400   0.66502554    300.63128   -352.37433 
  180500   0.66477202    300.16398    -55.02207 
  180600   0.66354424    299.47211   -52.667598 
  180700   0.66255587    298.41645    178.73753 
  180800   0.66194044    297.88662    -46.15302 
  180900   0.66250563    297.53621   -185.53545 
  181000    0.6637008     301.3185      66.8655 
  181100    0.6652246    297.97905   -105.27095 
  181200   0.66656549    297.16318   -123.83208 
  181300   0.66743632    296.92904   -139.55962 
  181400    0.6675812    298.49231   -24.559382 
  181500     0.667287    298.60407    123.72613 
  181600   0.66720935    300.41491    176.43601 
  181700   0.66680242    297.61459    83.676846 
  181800   0.66631639    295.97679    16.427186 
  181900   0.66611067    295.16862    149.18949 
  182000   0.66623658    299.46331    3.8508254 
  182100    0.6670398    300.06913    246.15318 
  182200   0.66736518    295.11536   -79.761785 
  182300   0.66723168    295.95062    -83.97482 
  182400   0.66693825    297.47643   -139.83419 
  182500   0.66712883    298.28955   -115.33321 
  182600   0.66702755    300.23424   -123.33311 
  182700   0.66713975    298.91036   -3.4878799 
  182800   0.66751816     298.7179     45.71044 
  182900   0.66821961    294.92148   -110.70265 
  183000   0.66881263    296.30244    44.905908 
  183100   0.66885475    300.50116   -224.31028 
  183200   0.66774463    299.19331   -53.636423 
  183300   0.66649429    297.81133    182.27523 
  183400   0.66572172     297.6209    68.203791 
  183500    0.6658996    298.70753   -47.886548 
  183600    0.6671028    299.04419   -36.128127 
  183700   0.66869337    298.15548   -159.08131 
  183800   0.66939829    297.38233    -10.76705 
  183900   0.66958654    295.31844    67.282968 
  184000   0.66926738    297.31113   -61.839895 
  184100   0.66819014     298.0847   -93.836579 
  184200    0.6667938    300.41851    57.395291 
  184300   0.66559736    298.52532   -21.463582 
  184400   0.66474341    298.47574   -30.995571 
  184500   0.66450748    298.52583   -83.388396 
  184600   0.66476519    296.75145   -85.480797 
  184700   0.66569121    298.54856    245.16903 
  184800   0.66669603    298.61036    239.62641 
  184900   0.66738628    298.89832   -76.796688 
  185000   0.66725401    297.96915   -135.93492 
  185100    0.6667223    297.93446    69.808794 
  185200   0.66692998    298.58816    132.20148 
  185300   0.66725608    294.91682    67.874468 
  185400   0.66756783    298.51919  -0.04439485 
  185500   0.66794402     299.1173   -48.378917 
  185600   0.66801947    296.61427   -74.308115 
  185700   0.66775543    298.65349   -106.24768 
  185800     0.667347    300.87982   -251.53439 
  185900   0.66683607    300.66867    16.803628 
  186000   0.66654781    298.21353   -29.399731 
  186100   0.66702784    296.95488   -156.00484 
  186200   0.66790382     297.2042   -146.88467 
  186300   0.66900035     296.8142    44.342745 
  186400   0.66921367     299.6444    8.9394923 
  186500   0.66884446    300.14934    237.27112 
  186600   0.66769634    296.80901    197.92394 
  186700   0.66675065     296.1996    -102.4107 
  186800   0.66657393    296.21883    37.540864 
  186900   0.66681083    300.29671    242.69622 
  187000   0.66773677    299.67293    192.12078 
  187100   0.66830665    297.46177   -68.460502 
  187200    0.6684457    294.79925   -20.556563 
  187300   0.66904666    296.59054   -121.17831 
  187400   0.67017588    298.18708   -68.642837 
  187500   0.67114934    298.05719    98.379398 
  187600   0.67091802    298.67548    48.219663 
  187700     0.669533     301.7798   -199.64406 
  187800   0.66842064    297.42321    6.7336162 
  187900   0.66726845    297.80046    54.628907 
  188000    0.6665472    297.59947    57.095407 
  188100    0.6660768    298.81002     218.9988 
  188200   0.66608795    298.51499    174.07488 
  188300   0.66613219    297.68054   -5.9858239 
  188400   0.66625638    297.40096    39.751016 
  188500   0.66603832    295.95186    31.476615 
  188600   0.66563367    296.09691   -131.02192 
  188700   0.66491155    297.57151   -95.241385 
  188800   0.66415419    298.23745   -147.89275 
  188900   0.66334049    299.02104   -129.67984 
  189000   0.66256731    296.96297   -94.099348 
  189100   0.66270616    295.54702     -154.301 
  189200      0.66379    298.61642   -170.91257 
  189300   0.66516875    299.02141    28.132237 
  189400    0.6664849    297.67308   -127.68885 
  189500   0.66718599    297.08931     68.86114 
  189600   0.66720136    297.23937    225.41381 
  189700   0.66651763    295.46764   -213.87558 
  189800   0.66614154    295.29591   -181.62272 
  189900   0.66645283    298.98566    136.42761 
  190000   0.66691567    299.99695    54.144389 
  190100   0.66682089    297.46953   -216.75342 
  190200   0.66615367    297.76765    82.915358 
  190300   0.66519345    298.42589   -6.7363474 
  190400   0.66446837    297.51563   -119.82458 
  190500   0.66393227    299.68616   -157.99034 
  190600   0.66398965    300.57046    4.5050874 
  190700   0.66398028    299.33844    -35.47729 
  190800    0.6641315    297.82354   -34.947509 
  190900    0.6643338    294.32431    -138.0971 
  191000   0.66492952    297.12761    12.824529 
  191100   0.66615155    301.37069    233.23574 
  191200   0.66734002    301.21736    204.82453 
  191300   0.66810862    298.63092    83.905894 
  191400   0.66869259    297.48668   -65.936348 
  191500   0.66921552    296.40424    64.393038 
  191600   0.66885296    299.29967    189.78554 
  191700   0.66800218    300.20889     163.7192 
  191800   0.66667541    301.12903   -168.02756 
  191900    0.6655742    299.11813   -383.25153 
  192000   0.66495562    296.79839   -108.08577 
  192100   0.66495976    296.03751    81.996936 
  192200   0.66489911     298.5062   -103.84728 
  192300   0.66552607    299.60098    48.177824 
  192400   0.66584149    295.06678    92.127996 
  192500   0.66584541    296.97918   -35.494751 
  192600   0.66561046    298.85207    -69.46288 
  192700   0.66571205    299.38689    95.755523 
  192800   0.66582471     298.8588    114.16681 
  192900   0.66615016    298.23348     80.02394 
  193000   0.66693126    295.81104    16.499303 
  193100   0.66756962     300.5657    87.435343 
  193200   0.66794406    299.02114    178.78509 
  193300   0.66785345    298.08175    81.994368 
  193400   0.66825525    294.49026    180.75418 
  193500   0.66880562    294.95613   -11.167603 
  193600   0.66942257    296.31101   -225.54725 
  193700   0.67023239    297.73567   -65.271558 
  193800    0.6703288    298.84729   -235.18049 
  193900   0.66962374    297.74997    35.784599 
  194000   0.66837662    296.26183    179.82297 
  194100   0.66715542    297.74949   -104.27974 
  194200   0.66648195    299.20699    5.9508701 
  194300   0.66601491    299.46873    190.10059 
  194400    0.6653236     297.3191    74.239848 
  194500   0.66532728    297.29801    82.573026 
  194600   0.66622969     298.5458    76.421882 
  194700   0.66738789    297.24915    215.09208 
  194800   0.66827171    298.99526    79.084634 
  194900   0.66888088    300.30625   -126.02031 
  195000    0.6692617    299.19766    27.860224 
  195100   0.66964301    298.55966   -116.80611 
  195200   0.67046817    296.36864   -157.94102 
  195300   0.67084055    299.54879     111.3007 
  195400   0.67028849     301.7559    41.177651 
  195500   0.66929346    297.17151   -178.62254 
  195600   0.66794252    296.46629   -73.803862 
  195700   0.66747626    296.58535    182.21754 
  195800    0.6671416    299.26848    19.521563 
  195900   0.66697986    298.39931     87.30339 
  196000   0.66689937    297.94051    183.04148 
  196100   0.66668177    295.30948    112.82756 
  196200   0.66655175    296.89217    240.20723 
  196300   0.66651725    299.01435    71.739861 
  196400   0.66648828    298.90292    36.243245 
  196500   0.66642643    297.00561    77.136606 
  196600   0.66653527    297.58233    86.398553 
  196700    0.6665177    297.08954    9.2490943 
  196800   0.66715844    294.75752    70.205207 
  196900   0.66763839    295.50247   -41.041907 
  197000   0.66855967     298.9131    20.720034 
  197100   0.67001318    299.42806    66.450279 
  197200   0.67112483    298.41478   -10.662206 
  197300   0.67179367    296.73112    -65.92425 
  197400   0.67193097    298.59184   -160.01269 
  197500   0.67157174    297.06047    27.731982 
  197600   0.67100972    295.87905     269.5181 
  197700   0.67033016    299.22208   -31.747193 
  197800     0.670145    297.18301     29.37034 
  197900   0.66942482    298.39458    143.76687 
  198000   0.66849472    299.66691    76.771506 
  198100   0.66714748    300.49697    19.398901 
  198200   0.66599402    298.97308   -33.070119 
  198300   0.66567051    296.84914    5.1712382 
  198400   0.66561474    298.50584    1.8440411 
  198500   0.66566535    296.93109    101.20549 
  198600   0.66583874    299.65537   -310.40215 
  198700   0.66637243    299.54201   -139.15669 
  198800   0.66663244    297.71889    235.86693 
  198900   0.66631482    294.11307   -7.0480643 
  199000   0.66610571    295.59593   -195.11767 
  199100    0.6669291    298.87226    39.940643 
  199200   0.66854843    298.92057    122.44296 
  199300   0.66955894    300.54003    10.389359 
  199400   0.67003912    299.67927    230.61833 
  199500    0.6698136    299.90509   -165.95453 
  199600   0.66956136    297.34804    33.596676 
  199700   0.66891553     295.8854    258.66021 
  199800   0.66795144    299.19605    106.67017 
  199900   0.66701059    298.04902   -153.40481 
  200000   0.66603472    298.10652    2.4836673 
  200100   0.66572612    297.04456   -64.004966 
  200200   0.66597189     298.1941   -189.18117 
  200300   0.66670808    298.37618   -55.053673 
  200400   0.66761023    299.55874   -20.115411 
  200500   0.66905177    298.77897    21.595366 
  200600   0.66988554    298.81384   -62.322592 
  200700   0.67001801    299.22815   -283.85125 
  200800   0.67011089     295.7362    -113.1774 
  200900   0.67028191    297.86692   -36.971552 
  201000   0.67023208    296.46292   -39.725858 
  201100   0.66913134    299.69227   -136.64149 
  201200   0.66815125     296.4887    31.158882 
  201300   0.66720087    296.37697    -158.7907 
  201400   0.66691397    299.73276   -213.38256 
  201500    0.6673381    298.49164   -80.791505 
  201600   0.66801931    302.09454   -140.63395 
  201700   0.66912978    300.02547   -99.075014 
  201800    0.6698509     297.0826   -14.901006 
  201900   0.66968648    297.01714    3.2533038 
  202000   0.66830493     298.6148    97.244246 
  202100   0.66680785     298.2259   -7.3708256 
  202200   0.66558363    298.02625   -164.84409 
  202300   0.66534735    296.91239   -33.032718 
  202400   0.66626867    296.01315    41.877157 
  202500   0.66762641     297.3262   -18.445912 
  202600   0.66900713    299.76739    49.452769 
  202700   0.67020039    299.22685    189.28772 
  202800   0.67133585    297.16871    94.834243 
  202900   0.67197987    298.67679    34.242693 
  203000    0.6724883    297.58009    72.992752 
  203100   0.67317829    296.25472    139.67412 
  203200   0.67307653    297.14199   -180.40936 
  203300    0.6728475    298.77824   -242.55107 
  203400   0.67205755    299.03155    175.00389 
  203500   0.67077301    297.83039   -101.05979 
  203600   0.67003646    294.62093   -179.84121 
  203700    0.6696862    296.12992     125.8804 
  203800   0.67004676    298.43005   -138.19621 
  203900   0.67042081    297.59289   -509.16401 
  204000   0.67053764    298.48163   -37.247095 
  204100   0.67053478    300.00046    137.68514 
  204200   0.66993014    295.52432   -264.76474 
  204300   0.66941036    294.87636   -125.38815 
  204400   0.66868033    297.11425   -220.90251 
  204500   0.66802925    298.11552   -153.09019 
  204600   0.66738306    297.56795    51.214096 
  204700   0.66736479    294.78261    24.032041 
  204800    0.6675467    298.03403   -15.106677 
  204900   0.66806138    297.98858   -39.198633 
  205000   0.66782745    300.09882    52.331545 
  205100    0.6662118    300.05892    48.992589 
Loop time of 5575.66 on 1 procs for 150000 steps with 24000 atoms

Performance: 2.324 ns/day, 10.325 hours/ns, 26.903 timesteps/s
82.5% CPU use with 1 MPI tasks x no OpenMP threads

MPI task timing breakdown:
Section |  min time  |  avg time  |  max time  |%varavg| %total
---------------------------------------------------------------
Pair    | 4393.9     | 4393.9     | 4393.9     |   0.0 | 78.80
Bond    | 720.41     | 720.41     | 720.41     |   0.0 | 12.92
Neigh   | 210.98     | 210.98     | 210.98     |   0.0 |  3.78
Comm    | 35.101     | 35.101     | 35.101     |   0.0 |  0.63
Output  | 43.891     | 43.891     | 43.891     |   0.0 |  0.79
Modify  | 148.73     | 148.73     | 148.73     |   0.0 |  2.67
Other   |            | 22.69      |            |       |  0.41

Nlocal:    24000 ave 24000 max 24000 min
Histogram: 1 0 0 0 0 0 0 0 0 0
Nghost:    21599 ave 21599 max 21599 min
Histogram: 1 0 0 0 0 0 0 0 0 0
Neighs:    2.02761e+06 ave 2.02761e+06 max 2.02761e+06 min
Histogram: 1 0 0 0 0 0 0 0 0 0

Total # of neighbors = 2027613
Ave neighs/atom = 84.4839
Ave special neighs/atom = 4
Neighbor list builds = 2618
Dangerous builds = 0
Total wall time: 2:02:46
